<?xml version="1.0" encoding="ISO-8859-1"?>
<modeling>
 <generator>
  <i name="program" type="string">vasp </i>
  <i name="version" type="string">5.4.4.18Apr17-6-g9f103f2a35  </i>
  <i name="subversion" type="string">(build Nov 26 2018 16:29:41) complex            parallel </i>
  <i name="platform" type="string">LinuxIFC </i>
  <i name="date" type="string">2019 10 22 </i>
  <i name="time" type="string">14:46:45 </i>
 </generator>
 <incar>
  <i type="string" name="SYSTEM"> MoTe2</i>
  <i type="string" name="PREC">accurate</i>
  <i type="string" name="ALGO"> Normal</i>
  <i type="int" name="IBRION">    -1</i>
  <i name="EDIFF">      0.00010000</i>
  <i type="int" name="ISYM">     2</i>
  <i name="ENCUT">    400.00000000</i>
  <i name="POTIM">      0.50000000</i>
  <i type="logical" name="LREAL"> F  </i>
  <i type="int" name="ISMEAR">    -5</i>
  <i name="SIGMA">      0.05000000</i>
  <i type="int" name="NWRITE">     1</i>
  <i type="logical" name="LWAVE"> F  </i>
  <i type="logical" name="LCHARG"> T  </i>
  <i type="logical" name="LVTOT"> T  </i>
  <i type="logical" name="LASPH"> T  </i>
  <v type="int" name="KPOINT_BSE">    -1     0     0     0</v>
  <i type="logical" name="LUSE_VDW"> T  </i>
  <i name="BPARAM">     15.70000000</i>
  <i type="string" name="METAGGA"> SCAN</i>
  <i type="logical" name="LASPH"> T  </i>
 </incar>
 <structure name="primitive_cell" >
  <crystal>
   <varray name="basis" >
    <v>       3.50344967       0.00000000       0.00000000 </v>
    <v>       0.00000000       6.06808850       0.00000000 </v>
    <v>       0.00000000       0.00000000      35.00000000 </v>
   </varray>
   <i name="volume">    744.07349355 </i>
   <varray name="rec_basis" >
    <v>       0.28543296       0.00000000       0.00000000 </v>
    <v>       0.00000000       0.16479654       0.00000000 </v>
    <v>       0.00000000       0.00000000       0.02857143 </v>
   </varray>
  </crystal>
  <varray name="positions" >
   <v>       0.00000000      -0.33333788       0.16114054 </v>
   <v>      -0.50000000      -0.49999934       0.10961466 </v>
   <v>       0.00000000       0.00000066       0.10961466 </v>
   <v>      -0.50000000       0.16666212       0.16114054 </v>
   <v>       0.00000000      -0.33333770       0.05820024 </v>
   <v>       0.00000000       0.33333788       0.27733503 </v>
   <v>      -0.50000000      -0.16666212       0.27733503 </v>
   <v>      -0.50000000       0.16666230       0.05820024 </v>
   <v>      -0.50000000       0.49999934       0.32886091 </v>
   <v>       0.00000000      -0.00000066       0.32886091 </v>
   <v>       0.00000000       0.33333770       0.38027533 </v>
   <v>      -0.50000000      -0.16666230       0.38027533 </v>
   <v>      -0.50000000      -0.50000000      -0.50000000 </v>
  </varray>
 </structure>
 <varray name="primitive_index" >
  <v type="int" >        1 </v>
  <v type="int" >       10 </v>
  <v type="int" >        9 </v>
  <v type="int" >        3 </v>
  <v type="int" >        2 </v>
  <v type="int" >        6 </v>
  <v type="int" >        8 </v>
  <v type="int" >        4 </v>
  <v type="int" >       12 </v>
  <v type="int" >       11 </v>
  <v type="int" >        5 </v>
  <v type="int" >        7 </v>
  <v type="int" >       13 </v>
 </varray>
 <kpoints>
  <generation param="Monkhorst-Pack">
   <v type="int" name="divisions">      20       10        1 </v>
   <v name="usershift">      0.00000000       0.00000000       0.00000000 </v>
   <v name="genvec1">      0.05000000       0.00000000       0.00000000 </v>
   <v name="genvec2">      0.00000000       0.10000000       0.00000000 </v>
   <v name="genvec3">      0.00000000       0.00000000       1.00000000 </v>
   <v name="shift">      0.50000000       0.50000000       0.00000000 </v>
  </generation>
  <varray name="kpointlist" >
   <v>       0.02500000       0.05000000       0.00000000 </v>
   <v>       0.07500000       0.05000000       0.00000000 </v>
   <v>       0.12500000       0.05000000       0.00000000 </v>
   <v>       0.17500000       0.05000000       0.00000000 </v>
   <v>       0.22500000       0.05000000       0.00000000 </v>
   <v>       0.27500000       0.05000000       0.00000000 </v>
   <v>       0.32500000       0.05000000       0.00000000 </v>
   <v>       0.37500000       0.05000000       0.00000000 </v>
   <v>       0.42500000       0.05000000       0.00000000 </v>
   <v>       0.47500000       0.05000000       0.00000000 </v>
   <v>       0.02500000       0.15000000       0.00000000 </v>
   <v>       0.07500000       0.15000000       0.00000000 </v>
   <v>       0.12500000       0.15000000       0.00000000 </v>
   <v>       0.17500000       0.15000000       0.00000000 </v>
   <v>       0.22500000       0.15000000       0.00000000 </v>
   <v>       0.27500000       0.15000000       0.00000000 </v>
   <v>       0.32500000       0.15000000       0.00000000 </v>
   <v>       0.37500000       0.15000000       0.00000000 </v>
   <v>       0.42500000       0.15000000       0.00000000 </v>
   <v>       0.47500000       0.15000000       0.00000000 </v>
   <v>       0.02500000       0.25000000       0.00000000 </v>
   <v>       0.07500000       0.25000000       0.00000000 </v>
   <v>       0.12500000       0.25000000       0.00000000 </v>
   <v>       0.17500000       0.25000000       0.00000000 </v>
   <v>       0.22500000       0.25000000       0.00000000 </v>
   <v>       0.27500000       0.25000000       0.00000000 </v>
   <v>       0.32500000       0.25000000       0.00000000 </v>
   <v>       0.37500000       0.25000000       0.00000000 </v>
   <v>       0.42500000       0.25000000       0.00000000 </v>
   <v>       0.47500000       0.25000000       0.00000000 </v>
   <v>       0.02500000       0.35000000       0.00000000 </v>
   <v>       0.07500000       0.35000000       0.00000000 </v>
   <v>       0.12500000       0.35000000       0.00000000 </v>
   <v>       0.17500000       0.35000000       0.00000000 </v>
   <v>       0.22500000       0.35000000       0.00000000 </v>
   <v>       0.27500000       0.35000000       0.00000000 </v>
   <v>       0.32500000       0.35000000       0.00000000 </v>
   <v>       0.37500000       0.35000000       0.00000000 </v>
   <v>       0.42500000       0.35000000       0.00000000 </v>
   <v>       0.47500000       0.35000000       0.00000000 </v>
   <v>       0.02500000       0.45000000       0.00000000 </v>
   <v>       0.07500000       0.45000000       0.00000000 </v>
   <v>       0.12500000       0.45000000       0.00000000 </v>
   <v>       0.17500000       0.45000000       0.00000000 </v>
   <v>       0.22500000       0.45000000       0.00000000 </v>
   <v>       0.27500000       0.45000000       0.00000000 </v>
   <v>       0.32500000       0.45000000       0.00000000 </v>
   <v>       0.37500000       0.45000000       0.00000000 </v>
   <v>       0.42500000       0.45000000       0.00000000 </v>
   <v>       0.47500000       0.45000000       0.00000000 </v>
  </varray>
  <varray name="weights" >
   <v>       0.02000000 </v>
   <v>       0.02000000 </v>
   <v>       0.02000000 </v>
   <v>       0.02000000 </v>
   <v>       0.02000000 </v>
   <v>       0.02000000 </v>
   <v>       0.02000000 </v>
   <v>       0.02000000 </v>
   <v>       0.02000000 </v>
   <v>       0.02000000 </v>
   <v>       0.02000000 </v>
   <v>       0.02000000 </v>
   <v>       0.02000000 </v>
   <v>       0.02000000 </v>
   <v>       0.02000000 </v>
   <v>       0.02000000 </v>
   <v>       0.02000000 </v>
   <v>       0.02000000 </v>
   <v>       0.02000000 </v>
   <v>       0.02000000 </v>
   <v>       0.02000000 </v>
   <v>       0.02000000 </v>
   <v>       0.02000000 </v>
   <v>       0.02000000 </v>
   <v>       0.02000000 </v>
   <v>       0.02000000 </v>
   <v>       0.02000000 </v>
   <v>       0.02000000 </v>
   <v>       0.02000000 </v>
   <v>       0.02000000 </v>
   <v>       0.02000000 </v>
   <v>       0.02000000 </v>
   <v>       0.02000000 </v>
   <v>       0.02000000 </v>
   <v>       0.02000000 </v>
   <v>       0.02000000 </v>
   <v>       0.02000000 </v>
   <v>       0.02000000 </v>
   <v>       0.02000000 </v>
   <v>       0.02000000 </v>
   <v>       0.02000000 </v>
   <v>       0.02000000 </v>
   <v>       0.02000000 </v>
   <v>       0.02000000 </v>
   <v>       0.02000000 </v>
   <v>       0.02000000 </v>
   <v>       0.02000000 </v>
   <v>       0.02000000 </v>
   <v>       0.02000000 </v>
   <v>       0.02000000 </v>
  </varray>
  <varray name="tetrahedronlist"  type="int" >
   <v type="int" >        2        1        1        2       12 </v>
   <v type="int" >        2        1        1       11       12 </v>
   <v type="int" >        2        1       11       11       12 </v>
   <v type="int" >        2        1        2        2       12 </v>
   <v type="int" >        2        1        2       12       12 </v>
   <v type="int" >        2        1       11       12       12 </v>
   <v type="int" >        2        2        2        3       13 </v>
   <v type="int" >        2        2        2       12       13 </v>
   <v type="int" >        2        2       12       12       13 </v>
   <v type="int" >        2        2        3        3       13 </v>
   <v type="int" >        2        2        3       13       13 </v>
   <v type="int" >        2        2       12       13       13 </v>
   <v type="int" >        2        3        3        4       14 </v>
   <v type="int" >        2        3        3       13       14 </v>
   <v type="int" >        2        3       13       13       14 </v>
   <v type="int" >        2        3        4        4       14 </v>
   <v type="int" >        2        3        4       14       14 </v>
   <v type="int" >        2        3       13       14       14 </v>
   <v type="int" >        2        4        4        5       15 </v>
   <v type="int" >        2        4        4       14       15 </v>
   <v type="int" >        2        4       14       14       15 </v>
   <v type="int" >        2        4        5        5       15 </v>
   <v type="int" >        2        4        5       15       15 </v>
   <v type="int" >        2        4       14       15       15 </v>
   <v type="int" >        2        5        5        6       16 </v>
   <v type="int" >        2        5        5       15       16 </v>
   <v type="int" >        2        5       15       15       16 </v>
   <v type="int" >        2        5        6        6       16 </v>
   <v type="int" >        2        5        6       16       16 </v>
   <v type="int" >        2        5       15       16       16 </v>
   <v type="int" >        2        6        6        7       17 </v>
   <v type="int" >        2        6        6       16       17 </v>
   <v type="int" >        2        6       16       16       17 </v>
   <v type="int" >        2        6        7        7       17 </v>
   <v type="int" >        2        6        7       17       17 </v>
   <v type="int" >        2        6       16       17       17 </v>
   <v type="int" >        2        7        7        8       18 </v>
   <v type="int" >        2        7        7       17       18 </v>
   <v type="int" >        2        7       17       17       18 </v>
   <v type="int" >        2        7        8        8       18 </v>
   <v type="int" >        2        7        8       18       18 </v>
   <v type="int" >        2        7       17       18       18 </v>
   <v type="int" >        2        8        8        9       19 </v>
   <v type="int" >        2        8        8       18       19 </v>
   <v type="int" >        2        8       18       18       19 </v>
   <v type="int" >        2        8        9        9       19 </v>
   <v type="int" >        2        8        9       19       19 </v>
   <v type="int" >        2        8       18       19       19 </v>
   <v type="int" >        2        9        9       10       20 </v>
   <v type="int" >        2        9        9       19       20 </v>
   <v type="int" >        2        9       19       19       20 </v>
   <v type="int" >        2        9       10       10       20 </v>
   <v type="int" >        2        9       10       20       20 </v>
   <v type="int" >        2        9       19       20       20 </v>
   <v type="int" >        4       10       10       10       20 </v>
   <v type="int" >        4       10       10       20       20 </v>
   <v type="int" >        4       10       20       20       20 </v>
   <v type="int" >        2        9       10       10       19 </v>
   <v type="int" >        2       10       10       19       20 </v>
   <v type="int" >        2       10       19       20       20 </v>
   <v type="int" >        2        9        9       10       19 </v>
   <v type="int" >        2        9       10       19       19 </v>
   <v type="int" >        2       10       19       19       20 </v>
   <v type="int" >        2        8        9        9       18 </v>
   <v type="int" >        2        9        9       18       19 </v>
   <v type="int" >        2        9       18       19       19 </v>
   <v type="int" >        2        8        8        9       18 </v>
   <v type="int" >        2        8        9       18       18 </v>
   <v type="int" >        2        9       18       18       19 </v>
   <v type="int" >        2        7        8        8       17 </v>
   <v type="int" >        2        8        8       17       18 </v>
   <v type="int" >        2        8       17       18       18 </v>
   <v type="int" >        2        7        7        8       17 </v>
   <v type="int" >        2        7        8       17       17 </v>
   <v type="int" >        2        8       17       17       18 </v>
   <v type="int" >        2        6        7        7       16 </v>
   <v type="int" >        2        7        7       16       17 </v>
   <v type="int" >        2        7       16       17       17 </v>
   <v type="int" >        2        6        6        7       16 </v>
   <v type="int" >        2        6        7       16       16 </v>
   <v type="int" >        2        7       16       16       17 </v>
   <v type="int" >        2        5        6        6       15 </v>
   <v type="int" >        2        6        6       15       16 </v>
   <v type="int" >        2        6       15       16       16 </v>
   <v type="int" >        2        5        5        6       15 </v>
   <v type="int" >        2        5        6       15       15 </v>
   <v type="int" >        2        6       15       15       16 </v>
   <v type="int" >        2        4        5        5       14 </v>
   <v type="int" >        2        5        5       14       15 </v>
   <v type="int" >        2        5       14       15       15 </v>
   <v type="int" >        2        4        4        5       14 </v>
   <v type="int" >        2        4        5       14       14 </v>
   <v type="int" >        2        5       14       14       15 </v>
   <v type="int" >        2        3        4        4       13 </v>
   <v type="int" >        2        4        4       13       14 </v>
   <v type="int" >        2        4       13       14       14 </v>
   <v type="int" >        2        3        3        4       13 </v>
   <v type="int" >        2        3        4       13       13 </v>
   <v type="int" >        2        4       13       13       14 </v>
   <v type="int" >        2        2        3        3       12 </v>
   <v type="int" >        2        3        3       12       13 </v>
   <v type="int" >        2        3       12       13       13 </v>
   <v type="int" >        2        2        2        3       12 </v>
   <v type="int" >        2        2        3       12       12 </v>
   <v type="int" >        2        3       12       12       13 </v>
   <v type="int" >        2        1        2        2       11 </v>
   <v type="int" >        2        2        2       11       12 </v>
   <v type="int" >        2        2       11       12       12 </v>
   <v type="int" >        2        1        1        2       11 </v>
   <v type="int" >        2        1        2       11       11 </v>
   <v type="int" >        2        2       11       11       12 </v>
   <v type="int" >        4        1        1        1       11 </v>
   <v type="int" >        4        1        1       11       11 </v>
   <v type="int" >        4        1       11       11       11 </v>
   <v type="int" >        2       11       11       12       22 </v>
   <v type="int" >        2       11       11       21       22 </v>
   <v type="int" >        2       11       21       21       22 </v>
   <v type="int" >        2       11       12       12       22 </v>
   <v type="int" >        2       11       12       22       22 </v>
   <v type="int" >        2       11       21       22       22 </v>
   <v type="int" >        2       12       12       13       23 </v>
   <v type="int" >        2       12       12       22       23 </v>
   <v type="int" >        2       12       22       22       23 </v>
   <v type="int" >        2       12       13       13       23 </v>
   <v type="int" >        2       12       13       23       23 </v>
   <v type="int" >        2       12       22       23       23 </v>
   <v type="int" >        2       13       13       14       24 </v>
   <v type="int" >        2       13       13       23       24 </v>
   <v type="int" >        2       13       23       23       24 </v>
   <v type="int" >        2       13       14       14       24 </v>
   <v type="int" >        2       13       14       24       24 </v>
   <v type="int" >        2       13       23       24       24 </v>
   <v type="int" >        2       14       14       15       25 </v>
   <v type="int" >        2       14       14       24       25 </v>
   <v type="int" >        2       14       24       24       25 </v>
   <v type="int" >        2       14       15       15       25 </v>
   <v type="int" >        2       14       15       25       25 </v>
   <v type="int" >        2       14       24       25       25 </v>
   <v type="int" >        2       15       15       16       26 </v>
   <v type="int" >        2       15       15       25       26 </v>
   <v type="int" >        2       15       25       25       26 </v>
   <v type="int" >        2       15       16       16       26 </v>
   <v type="int" >        2       15       16       26       26 </v>
   <v type="int" >        2       15       25       26       26 </v>
   <v type="int" >        2       16       16       17       27 </v>
   <v type="int" >        2       16       16       26       27 </v>
   <v type="int" >        2       16       26       26       27 </v>
   <v type="int" >        2       16       17       17       27 </v>
   <v type="int" >        2       16       17       27       27 </v>
   <v type="int" >        2       16       26       27       27 </v>
   <v type="int" >        2       17       17       18       28 </v>
   <v type="int" >        2       17       17       27       28 </v>
   <v type="int" >        2       17       27       27       28 </v>
   <v type="int" >        2       17       18       18       28 </v>
   <v type="int" >        2       17       18       28       28 </v>
   <v type="int" >        2       17       27       28       28 </v>
   <v type="int" >        2       18       18       19       29 </v>
   <v type="int" >        2       18       18       28       29 </v>
   <v type="int" >        2       18       28       28       29 </v>
   <v type="int" >        2       18       19       19       29 </v>
   <v type="int" >        2       18       19       29       29 </v>
   <v type="int" >        2       18       28       29       29 </v>
   <v type="int" >        2       19       19       20       30 </v>
   <v type="int" >        2       19       19       29       30 </v>
   <v type="int" >        2       19       29       29       30 </v>
   <v type="int" >        2       19       20       20       30 </v>
   <v type="int" >        2       19       20       30       30 </v>
   <v type="int" >        2       19       29       30       30 </v>
   <v type="int" >        4       20       20       20       30 </v>
   <v type="int" >        4       20       20       30       30 </v>
   <v type="int" >        4       20       30       30       30 </v>
   <v type="int" >        2       19       20       20       29 </v>
   <v type="int" >        2       20       20       29       30 </v>
   <v type="int" >        2       20       29       30       30 </v>
   <v type="int" >        2       19       19       20       29 </v>
   <v type="int" >        2       19       20       29       29 </v>
   <v type="int" >        2       20       29       29       30 </v>
   <v type="int" >        2       18       19       19       28 </v>
   <v type="int" >        2       19       19       28       29 </v>
   <v type="int" >        2       19       28       29       29 </v>
   <v type="int" >        2       18       18       19       28 </v>
   <v type="int" >        2       18       19       28       28 </v>
   <v type="int" >        2       19       28       28       29 </v>
   <v type="int" >        2       17       18       18       27 </v>
   <v type="int" >        2       18       18       27       28 </v>
   <v type="int" >        2       18       27       28       28 </v>
   <v type="int" >        2       17       17       18       27 </v>
   <v type="int" >        2       17       18       27       27 </v>
   <v type="int" >        2       18       27       27       28 </v>
   <v type="int" >        2       16       17       17       26 </v>
   <v type="int" >        2       17       17       26       27 </v>
   <v type="int" >        2       17       26       27       27 </v>
   <v type="int" >        2       16       16       17       26 </v>
   <v type="int" >        2       16       17       26       26 </v>
   <v type="int" >        2       17       26       26       27 </v>
   <v type="int" >        2       15       16       16       25 </v>
   <v type="int" >        2       16       16       25       26 </v>
   <v type="int" >        2       16       25       26       26 </v>
   <v type="int" >        2       15       15       16       25 </v>
   <v type="int" >        2       15       16       25       25 </v>
   <v type="int" >        2       16       25       25       26 </v>
   <v type="int" >        2       14       15       15       24 </v>
   <v type="int" >        2       15       15       24       25 </v>
   <v type="int" >        2       15       24       25       25 </v>
   <v type="int" >        2       14       14       15       24 </v>
   <v type="int" >        2       14       15       24       24 </v>
   <v type="int" >        2       15       24       24       25 </v>
   <v type="int" >        2       13       14       14       23 </v>
   <v type="int" >        2       14       14       23       24 </v>
   <v type="int" >        2       14       23       24       24 </v>
   <v type="int" >        2       13       13       14       23 </v>
   <v type="int" >        2       13       14       23       23 </v>
   <v type="int" >        2       14       23       23       24 </v>
   <v type="int" >        2       12       13       13       22 </v>
   <v type="int" >        2       13       13       22       23 </v>
   <v type="int" >        2       13       22       23       23 </v>
   <v type="int" >        2       12       12       13       22 </v>
   <v type="int" >        2       12       13       22       22 </v>
   <v type="int" >        2       13       22       22       23 </v>
   <v type="int" >        2       11       12       12       21 </v>
   <v type="int" >        2       12       12       21       22 </v>
   <v type="int" >        2       12       21       22       22 </v>
   <v type="int" >        2       11       11       12       21 </v>
   <v type="int" >        2       11       12       21       21 </v>
   <v type="int" >        2       12       21       21       22 </v>
   <v type="int" >        4       11       11       11       21 </v>
   <v type="int" >        4       11       11       21       21 </v>
   <v type="int" >        4       11       21       21       21 </v>
   <v type="int" >        2       21       21       22       32 </v>
   <v type="int" >        2       21       21       31       32 </v>
   <v type="int" >        2       21       31       31       32 </v>
   <v type="int" >        2       21       22       22       32 </v>
   <v type="int" >        2       21       22       32       32 </v>
   <v type="int" >        2       21       31       32       32 </v>
   <v type="int" >        2       22       22       23       33 </v>
   <v type="int" >        2       22       22       32       33 </v>
   <v type="int" >        2       22       32       32       33 </v>
   <v type="int" >        2       22       23       23       33 </v>
   <v type="int" >        2       22       23       33       33 </v>
   <v type="int" >        2       22       32       33       33 </v>
   <v type="int" >        2       23       23       24       34 </v>
   <v type="int" >        2       23       23       33       34 </v>
   <v type="int" >        2       23       33       33       34 </v>
   <v type="int" >        2       23       24       24       34 </v>
   <v type="int" >        2       23       24       34       34 </v>
   <v type="int" >        2       23       33       34       34 </v>
   <v type="int" >        2       24       24       25       35 </v>
   <v type="int" >        2       24       24       34       35 </v>
   <v type="int" >        2       24       34       34       35 </v>
   <v type="int" >        2       24       25       25       35 </v>
   <v type="int" >        2       24       25       35       35 </v>
   <v type="int" >        2       24       34       35       35 </v>
   <v type="int" >        2       25       25       26       36 </v>
   <v type="int" >        2       25       25       35       36 </v>
   <v type="int" >        2       25       35       35       36 </v>
   <v type="int" >        2       25       26       26       36 </v>
   <v type="int" >        2       25       26       36       36 </v>
   <v type="int" >        2       25       35       36       36 </v>
   <v type="int" >        2       26       26       27       37 </v>
   <v type="int" >        2       26       26       36       37 </v>
   <v type="int" >        2       26       36       36       37 </v>
   <v type="int" >        2       26       27       27       37 </v>
   <v type="int" >        2       26       27       37       37 </v>
   <v type="int" >        2       26       36       37       37 </v>
   <v type="int" >        2       27       27       28       38 </v>
   <v type="int" >        2       27       27       37       38 </v>
   <v type="int" >        2       27       37       37       38 </v>
   <v type="int" >        2       27       28       28       38 </v>
   <v type="int" >        2       27       28       38       38 </v>
   <v type="int" >        2       27       37       38       38 </v>
   <v type="int" >        2       28       28       29       39 </v>
   <v type="int" >        2       28       28       38       39 </v>
   <v type="int" >        2       28       38       38       39 </v>
   <v type="int" >        2       28       29       29       39 </v>
   <v type="int" >        2       28       29       39       39 </v>
   <v type="int" >        2       28       38       39       39 </v>
   <v type="int" >        2       29       29       30       40 </v>
   <v type="int" >        2       29       29       39       40 </v>
   <v type="int" >        2       29       39       39       40 </v>
   <v type="int" >        2       29       30       30       40 </v>
   <v type="int" >        2       29       30       40       40 </v>
   <v type="int" >        2       29       39       40       40 </v>
   <v type="int" >        4       30       30       30       40 </v>
   <v type="int" >        4       30       30       40       40 </v>
   <v type="int" >        4       30       40       40       40 </v>
   <v type="int" >        2       29       30       30       39 </v>
   <v type="int" >        2       30       30       39       40 </v>
   <v type="int" >        2       30       39       40       40 </v>
   <v type="int" >        2       29       29       30       39 </v>
   <v type="int" >        2       29       30       39       39 </v>
   <v type="int" >        2       30       39       39       40 </v>
   <v type="int" >        2       28       29       29       38 </v>
   <v type="int" >        2       29       29       38       39 </v>
   <v type="int" >        2       29       38       39       39 </v>
   <v type="int" >        2       28       28       29       38 </v>
   <v type="int" >        2       28       29       38       38 </v>
   <v type="int" >        2       29       38       38       39 </v>
   <v type="int" >        2       27       28       28       37 </v>
   <v type="int" >        2       28       28       37       38 </v>
   <v type="int" >        2       28       37       38       38 </v>
   <v type="int" >        2       27       27       28       37 </v>
   <v type="int" >        2       27       28       37       37 </v>
   <v type="int" >        2       28       37       37       38 </v>
   <v type="int" >        2       26       27       27       36 </v>
   <v type="int" >        2       27       27       36       37 </v>
   <v type="int" >        2       27       36       37       37 </v>
   <v type="int" >        2       26       26       27       36 </v>
   <v type="int" >        2       26       27       36       36 </v>
   <v type="int" >        2       27       36       36       37 </v>
   <v type="int" >        2       25       26       26       35 </v>
   <v type="int" >        2       26       26       35       36 </v>
   <v type="int" >        2       26       35       36       36 </v>
   <v type="int" >        2       25       25       26       35 </v>
   <v type="int" >        2       25       26       35       35 </v>
   <v type="int" >        2       26       35       35       36 </v>
   <v type="int" >        2       24       25       25       34 </v>
   <v type="int" >        2       25       25       34       35 </v>
   <v type="int" >        2       25       34       35       35 </v>
   <v type="int" >        2       24       24       25       34 </v>
   <v type="int" >        2       24       25       34       34 </v>
   <v type="int" >        2       25       34       34       35 </v>
   <v type="int" >        2       23       24       24       33 </v>
   <v type="int" >        2       24       24       33       34 </v>
   <v type="int" >        2       24       33       34       34 </v>
   <v type="int" >        2       23       23       24       33 </v>
   <v type="int" >        2       23       24       33       33 </v>
   <v type="int" >        2       24       33       33       34 </v>
   <v type="int" >        2       22       23       23       32 </v>
   <v type="int" >        2       23       23       32       33 </v>
   <v type="int" >        2       23       32       33       33 </v>
   <v type="int" >        2       22       22       23       32 </v>
   <v type="int" >        2       22       23       32       32 </v>
   <v type="int" >        2       23       32       32       33 </v>
   <v type="int" >        2       21       22       22       31 </v>
   <v type="int" >        2       22       22       31       32 </v>
   <v type="int" >        2       22       31       32       32 </v>
   <v type="int" >        2       21       21       22       31 </v>
   <v type="int" >        2       21       22       31       31 </v>
   <v type="int" >        2       22       31       31       32 </v>
   <v type="int" >        4       21       21       21       31 </v>
   <v type="int" >        4       21       21       31       31 </v>
   <v type="int" >        4       21       31       31       31 </v>
   <v type="int" >        2       31       31       32       42 </v>
   <v type="int" >        2       31       31       41       42 </v>
   <v type="int" >        2       31       41       41       42 </v>
   <v type="int" >        2       31       32       32       42 </v>
   <v type="int" >        2       31       32       42       42 </v>
   <v type="int" >        2       31       41       42       42 </v>
   <v type="int" >        2       32       32       33       43 </v>
   <v type="int" >        2       32       32       42       43 </v>
   <v type="int" >        2       32       42       42       43 </v>
   <v type="int" >        2       32       33       33       43 </v>
   <v type="int" >        2       32       33       43       43 </v>
   <v type="int" >        2       32       42       43       43 </v>
   <v type="int" >        2       33       33       34       44 </v>
   <v type="int" >        2       33       33       43       44 </v>
   <v type="int" >        2       33       43       43       44 </v>
   <v type="int" >        2       33       34       34       44 </v>
   <v type="int" >        2       33       34       44       44 </v>
   <v type="int" >        2       33       43       44       44 </v>
   <v type="int" >        2       34       34       35       45 </v>
   <v type="int" >        2       34       34       44       45 </v>
   <v type="int" >        2       34       44       44       45 </v>
   <v type="int" >        2       34       35       35       45 </v>
   <v type="int" >        2       34       35       45       45 </v>
   <v type="int" >        2       34       44       45       45 </v>
   <v type="int" >        2       35       35       36       46 </v>
   <v type="int" >        2       35       35       45       46 </v>
   <v type="int" >        2       35       45       45       46 </v>
   <v type="int" >        2       35       36       36       46 </v>
   <v type="int" >        2       35       36       46       46 </v>
   <v type="int" >        2       35       45       46       46 </v>
   <v type="int" >        2       36       36       37       47 </v>
   <v type="int" >        2       36       36       46       47 </v>
   <v type="int" >        2       36       46       46       47 </v>
   <v type="int" >        2       36       37       37       47 </v>
   <v type="int" >        2       36       37       47       47 </v>
   <v type="int" >        2       36       46       47       47 </v>
   <v type="int" >        2       37       37       38       48 </v>
   <v type="int" >        2       37       37       47       48 </v>
   <v type="int" >        2       37       47       47       48 </v>
   <v type="int" >        2       37       38       38       48 </v>
   <v type="int" >        2       37       38       48       48 </v>
   <v type="int" >        2       37       47       48       48 </v>
   <v type="int" >        2       38       38       39       49 </v>
   <v type="int" >        2       38       38       48       49 </v>
   <v type="int" >        2       38       48       48       49 </v>
   <v type="int" >        2       38       39       39       49 </v>
   <v type="int" >        2       38       39       49       49 </v>
   <v type="int" >        2       38       48       49       49 </v>
   <v type="int" >        2       39       39       40       50 </v>
   <v type="int" >        2       39       39       49       50 </v>
   <v type="int" >        2       39       49       49       50 </v>
   <v type="int" >        2       39       40       40       50 </v>
   <v type="int" >        2       39       40       50       50 </v>
   <v type="int" >        2       39       49       50       50 </v>
   <v type="int" >        4       40       40       40       50 </v>
   <v type="int" >        4       40       40       50       50 </v>
   <v type="int" >        4       40       50       50       50 </v>
   <v type="int" >        2       39       40       40       49 </v>
   <v type="int" >        2       40       40       49       50 </v>
   <v type="int" >        2       40       49       50       50 </v>
   <v type="int" >        2       39       39       40       49 </v>
   <v type="int" >        2       39       40       49       49 </v>
   <v type="int" >        2       40       49       49       50 </v>
   <v type="int" >        2       38       39       39       48 </v>
   <v type="int" >        2       39       39       48       49 </v>
   <v type="int" >        2       39       48       49       49 </v>
   <v type="int" >        2       38       38       39       48 </v>
   <v type="int" >        2       38       39       48       48 </v>
   <v type="int" >        2       39       48       48       49 </v>
   <v type="int" >        2       37       38       38       47 </v>
   <v type="int" >        2       38       38       47       48 </v>
   <v type="int" >        2       38       47       48       48 </v>
   <v type="int" >        2       37       37       38       47 </v>
   <v type="int" >        2       37       38       47       47 </v>
   <v type="int" >        2       38       47       47       48 </v>
   <v type="int" >        2       36       37       37       46 </v>
   <v type="int" >        2       37       37       46       47 </v>
   <v type="int" >        2       37       46       47       47 </v>
   <v type="int" >        2       36       36       37       46 </v>
   <v type="int" >        2       36       37       46       46 </v>
   <v type="int" >        2       37       46       46       47 </v>
   <v type="int" >        2       35       36       36       45 </v>
   <v type="int" >        2       36       36       45       46 </v>
   <v type="int" >        2       36       45       46       46 </v>
   <v type="int" >        2       35       35       36       45 </v>
   <v type="int" >        2       35       36       45       45 </v>
   <v type="int" >        2       36       45       45       46 </v>
   <v type="int" >        2       34       35       35       44 </v>
   <v type="int" >        2       35       35       44       45 </v>
   <v type="int" >        2       35       44       45       45 </v>
   <v type="int" >        2       34       34       35       44 </v>
   <v type="int" >        2       34       35       44       44 </v>
   <v type="int" >        2       35       44       44       45 </v>
   <v type="int" >        2       33       34       34       43 </v>
   <v type="int" >        2       34       34       43       44 </v>
   <v type="int" >        2       34       43       44       44 </v>
   <v type="int" >        2       33       33       34       43 </v>
   <v type="int" >        2       33       34       43       43 </v>
   <v type="int" >        2       34       43       43       44 </v>
   <v type="int" >        2       32       33       33       42 </v>
   <v type="int" >        2       33       33       42       43 </v>
   <v type="int" >        2       33       42       43       43 </v>
   <v type="int" >        2       32       32       33       42 </v>
   <v type="int" >        2       32       33       42       42 </v>
   <v type="int" >        2       33       42       42       43 </v>
   <v type="int" >        2       31       32       32       41 </v>
   <v type="int" >        2       32       32       41       42 </v>
   <v type="int" >        2       32       41       42       42 </v>
   <v type="int" >        2       31       31       32       41 </v>
   <v type="int" >        2       31       32       41       41 </v>
   <v type="int" >        2       32       41       41       42 </v>
   <v type="int" >        4       31       31       31       41 </v>
   <v type="int" >        4       31       31       41       41 </v>
   <v type="int" >        4       31       41       41       41 </v>
   <v type="int" >        4       41       41       42       42 </v>
   <v type="int" >        4       41       41       41       42 </v>
   <v type="int" >        4       41       42       42       42 </v>
   <v type="int" >        4       42       42       43       43 </v>
   <v type="int" >        4       42       42       42       43 </v>
   <v type="int" >        4       42       43       43       43 </v>
   <v type="int" >        4       43       43       44       44 </v>
   <v type="int" >        4       43       43       43       44 </v>
   <v type="int" >        4       43       44       44       44 </v>
   <v type="int" >        4       44       44       45       45 </v>
   <v type="int" >        4       44       44       44       45 </v>
   <v type="int" >        4       44       45       45       45 </v>
   <v type="int" >        4       45       45       46       46 </v>
   <v type="int" >        4       45       45       45       46 </v>
   <v type="int" >        4       45       46       46       46 </v>
   <v type="int" >        4       46       46       47       47 </v>
   <v type="int" >        4       46       46       46       47 </v>
   <v type="int" >        4       46       47       47       47 </v>
   <v type="int" >        4       47       47       48       48 </v>
   <v type="int" >        4       47       47       47       48 </v>
   <v type="int" >        4       47       48       48       48 </v>
   <v type="int" >        4       48       48       49       49 </v>
   <v type="int" >        4       48       48       48       49 </v>
   <v type="int" >        4       48       49       49       49 </v>
   <v type="int" >        4       49       49       50       50 </v>
   <v type="int" >        4       49       49       49       50 </v>
   <v type="int" >        4       49       50       50       50 </v>
   <v type="int" >        6       50       50       50       50 </v>
   <v type="int" >        6       41       41       41       41 </v>
   <v type="int" >        4        1        1        2        2 </v>
   <v type="int" >        4        1        1        1        2 </v>
   <v type="int" >        4        1        2        2        2 </v>
   <v type="int" >        4        2        2        3        3 </v>
   <v type="int" >        4        2        2        2        3 </v>
   <v type="int" >        4        2        3        3        3 </v>
   <v type="int" >        4        3        3        4        4 </v>
   <v type="int" >        4        3        3        3        4 </v>
   <v type="int" >        4        3        4        4        4 </v>
   <v type="int" >        4        4        4        5        5 </v>
   <v type="int" >        4        4        4        4        5 </v>
   <v type="int" >        4        4        5        5        5 </v>
   <v type="int" >        4        5        5        6        6 </v>
   <v type="int" >        4        5        5        5        6 </v>
   <v type="int" >        4        5        6        6        6 </v>
   <v type="int" >        4        6        6        7        7 </v>
   <v type="int" >        4        6        6        6        7 </v>
   <v type="int" >        4        6        7        7        7 </v>
   <v type="int" >        4        7        7        8        8 </v>
   <v type="int" >        4        7        7        7        8 </v>
   <v type="int" >        4        7        8        8        8 </v>
   <v type="int" >        4        8        8        9        9 </v>
   <v type="int" >        4        8        8        8        9 </v>
   <v type="int" >        4        8        9        9        9 </v>
   <v type="int" >        4        9        9       10       10 </v>
   <v type="int" >        4        9        9        9       10 </v>
   <v type="int" >        4        9       10       10       10 </v>
   <v type="int" >        6       10       10       10       10 </v>
   <v type="int" >        6        1        1        1        1 </v>
  </varray>
  <i name="volumeweight">      0.00083333 </i>
 </kpoints>
 <parameters>
  <separator name="general" >
   <i type="string" name="SYSTEM">MoTe2</i>
   <i type="logical" name="LCOMPAT"> F  </i>
  </separator>
  <separator name="electronic" >
   <i type="string" name="PREC">accura</i>
   <i name="ENMAX">    400.00000000</i>
   <i name="ENAUG">    368.79200000</i>
   <i name="EDIFF">      0.00010000</i>
   <i type="int" name="IALGO">    38</i>
   <i type="int" name="IWAVPR">    10</i>
   <i type="int" name="NBANDS">    44</i>
   <i name="NELECT">     73.00000000</i>
   <i type="int" name="TURBO">     0</i>
   <i type="int" name="IRESTART">     0</i>
   <i type="int" name="NREBOOT">     0</i>
   <i type="int" name="NMIN">     0</i>
   <i name="EREF">      0.00000000</i>
   <separator name="electronic smearing" >
    <i type="int" name="ISMEAR">    -5</i>
    <i name="SIGMA">      0.05000000</i>
    <i name="KSPACING">      0.50000000</i>
    <i type="logical" name="KGAMMA"> T  </i>
   </separator>
   <separator name="electronic projectors" >
    <i type="logical" name="LREAL"> F  </i>
    <v name="ROPT">      0.00000000      0.00000000      0.00000000</v>
    <i type="int" name="LMAXPAW">  -100</i>
    <i type="int" name="LMAXMIX">     2</i>
    <i type="logical" name="NLSPLINE"> F  </i>
   </separator>
   <separator name="electronic startup" >
    <i type="int" name="ISTART">     0</i>
    <i type="int" name="ICHARG">     2</i>
    <i type="int" name="INIWAV">     1</i>
   </separator>
   <separator name="electronic spin" >
    <i type="int" name="ISPIN">     1</i>
    <i type="logical" name="LNONCOLLINEAR"> F  </i>
    <v name="MAGMOM">      1.00000000      1.00000000      1.00000000      1.00000000      1.00000000      1.00000000      1.00000000      1.00000000      1.00000000      1.00000000      1.00000000      1.00000000      1.00000000</v>
    <i name="NUPDOWN">     -1.00000000</i>
    <i type="logical" name="LSORBIT"> F  </i>
    <v name="SAXIS">      0.00000000      0.00000000      1.00000000</v>
    <i type="logical" name="LSPIRAL"> F  </i>
    <v name="QSPIRAL">      0.00000000      0.00000000      0.00000000</v>
    <i type="logical" name="LZEROZ"> F  </i>
   </separator>
   <separator name="electronic exchange-correlation" >
    <i type="logical" name="LASPH"> T  </i>
    <i type="logical" name="LMETAGGA"> F  </i>
   </separator>
   <separator name="electronic convergence" >
    <i type="int" name="NELM">    60</i>
    <i type="int" name="NELMDL">     0</i>
    <i type="int" name="NELMIN">     2</i>
    <i name="ENINI">    400.00000000</i>
    <separator name="electronic convergence detail" >
     <i type="logical" name="LDIAG"> T  </i>
     <i type="logical" name="LSUBROT"> F  </i>
     <i name="WEIMIN">      0.00000000</i>
     <i name="EBREAK">      0.00000057</i>
     <i name="DEPER">      0.30000000</i>
     <i type="int" name="NRMM">     4</i>
     <i name="TIME">      0.40000000</i>
    </separator>
   </separator>
   <separator name="electronic mixer" >
    <i name="AMIX">      0.40000000</i>
    <i name="BMIX">      1.00000000</i>
    <i name="AMIN">      0.10000000</i>
    <i name="AMIX_MAG">      1.60000000</i>
    <i name="BMIX_MAG">      1.00000000</i>
    <separator name="electronic mixer details" >
     <i type="int" name="IMIX">     4</i>
     <i type="logical" name="MIXFIRST"> F  </i>
     <i type="int" name="MAXMIX">   -45</i>
     <i name="WC">    100.00000000</i>
     <i type="int" name="INIMIX">     1</i>
     <i type="int" name="MIXPRE">     1</i>
     <i type="int" name="MREMOVE">     5</i>
    </separator>
   </separator>
   <separator name="electronic dipolcorrection" >
    <i type="logical" name="LDIPOL"> F  </i>
    <i type="logical" name="LMONO"> F  </i>
    <i type="int" name="IDIPOL">     0</i>
    <i name="EPSILON">      1.00000000</i>
    <v name="DIPOL">   -100.00000000   -100.00000000   -100.00000000</v>
    <i name="EFIELD">      0.00000000</i>
   </separator>
  </separator>
  <separator name="grids" >
   <i type="int" name="NGX">    24</i>
   <i type="int" name="NGY">    40</i>
   <i type="int" name="NGZ">   240</i>
   <i type="int" name="NGXF">    48</i>
   <i type="int" name="NGYF">    80</i>
   <i type="int" name="NGZF">   480</i>
   <i type="logical" name="ADDGRID"> F  </i>
  </separator>
  <separator name="ionic" >
   <i type="int" name="NSW">     0</i>
   <i type="int" name="IBRION">    -1</i>
   <i type="int" name="MDALGO">     0</i>
   <i type="int" name="ISIF">     2</i>
   <i name="PSTRESS">      0.00000000</i>
   <i name="EDIFFG">      0.00100000</i>
   <i type="int" name="NFREE">     0</i>
   <i name="POTIM">      0.50000000</i>
   <i name="SMASS">     -3.00000000</i>
   <i name="SCALEE">      1.00000000</i>
  </separator>
  <separator name="ionic md" >
   <i name="TEBEG">      0.00010000</i>
   <i name="TEEND">      0.00010000</i>
   <i type="int" name="NBLOCK">     1</i>
   <i type="int" name="KBLOCK">     1</i>
   <i type="int" name="NPACO">   256</i>
   <i name="APACO">     16.00000000</i>
  </separator>
  <separator name="symmetry" >
   <i type="int" name="ISYM">     2</i>
   <i name="SYMPREC">      0.00001000</i>
  </separator>
  <separator name="dos" >
   <i type="int" name="LORBIT">     0</i>
   <v name="RWIGS">     -1.00000000     -1.00000000     -1.00000000</v>
   <i type="int" name="NEDOS">   301</i>
   <i name="EMIN">     10.00000000</i>
   <i name="EMAX">    -10.00000000</i>
   <i name="EFERMI">      0.00000000</i>
  </separator>
  <separator name="writing" >
   <i type="int" name="NWRITE">     1</i>
   <i type="logical" name="LWAVE"> F  </i>
   <i type="logical" name="LDOWNSAMPLE"> F  </i>
   <i type="logical" name="LCHARG"> T  </i>
   <i type="logical" name="LPARD"> F  </i>
   <i type="logical" name="LVTOT"> T  </i>
   <i type="logical" name="LVHAR"> F  </i>
   <i type="logical" name="LELF"> F  </i>
   <i type="logical" name="LOPTICS"> F  </i>
   <v name="STM">      0.00000000      0.00000000      0.00000000      0.00000000      0.00000000      0.00000000      0.00000000</v>
  </separator>
  <separator name="performance" >
   <i type="int" name="NPAR">     4</i>
   <i type="int" name="NSIM">     4</i>
   <i type="int" name="NBLK">    -1</i>
   <i type="logical" name="LPLANE"> T  </i>
   <i type="logical" name="LSCALAPACK"> T  </i>
   <i type="logical" name="LSCAAWARE"> F  </i>
   <i type="logical" name="LSCALU"> F  </i>
   <i type="logical" name="LASYNC"> F  </i>
   <i type="logical" name="LORBITALREAL"> F  </i>
  </separator>
  <separator name="miscellaneous" >
   <i type="int" name="IDIOT">     3</i>
   <i type="int" name="ISPECIAL">     0</i>
   <i type="logical" name="LMUSIC"> F  </i>
   <v name="POMASS">    127.60000000     95.94000000      7.01000000</v>
   <v name="DARWINR">      0.00000000      0.00000000      0.00000000</v>
   <v name="DARWINV">      1.00000000      1.00000000      1.00000000</v>
   <i type="logical" name="LCORR"> T  </i>
  </separator>
  <i type="logical" name="GGA_COMPAT"> T  </i>
  <i type="logical" name="LBERRY"> F  </i>
  <i type="int" name="ICORELEVEL">     0</i>
  <i type="logical" name="LDAU"> F  </i>
  <i type="int" name="I_CONSTRAINED_M">     0</i>
  <separator name="electronic exchange-correlation" >
   <i type="string" name="GGA">--</i>
   <i type="int" name="VOSKOWN">     0</i>
   <i type="logical" name="LHFCALC"> F  </i>
   <i type="string" name="PRECFOCK"></i>
   <i type="logical" name="LSYMGRAD"> F  </i>
   <i type="logical" name="LHFONE"> F  </i>
   <i type="logical" name="LRHFCALC"> F  </i>
   <i type="logical" name="LTHOMAS"> F  </i>
   <i type="logical" name="LMODELHF"> F  </i>
   <i name="ENCUT4O">     -1.00000000</i>
   <i type="int" name="EXXOEP">     0</i>
   <i type="int" name="FOURORBIT">     0</i>
   <i name="AEXX">      0.00000000</i>
   <i name="HFALPHA">      0.00000000</i>
   <i name="MCALPHA">      0.00000000</i>
   <i name="ALDAX">      1.00000000</i>
   <i name="AGGAX">      1.00000000</i>
   <i name="ALDAC">      1.00000000</i>
   <i name="AGGAC">      1.00000000</i>
   <i type="int" name="NKREDX">     1</i>
   <i type="int" name="NKREDY">     1</i>
   <i type="int" name="NKREDZ">     1</i>
   <i type="logical" name="SHIFTRED"> F  </i>
   <i type="logical" name="ODDONLY"> F  </i>
   <i type="logical" name="EVENONLY"> F  </i>
   <i type="int" name="LMAXFOCK">     0</i>
   <i type="int" name="NMAXFOCKAE">     0</i>
   <i type="logical" name="LFOCKAEDFT"> F  </i>
   <i name="HFSCREEN">      0.00000000</i>
   <i name="HFSCREENC">      0.00000000</i>
   <i type="int" name="NBANDSGWLOW">     0</i>
  </separator>
  <separator name="vdW DFT" >
   <i type="logical" name="LUSE_VDW"> T  </i>
   <i name="Zab_VDW">     -0.84910000</i>
   <i name="PARAM1">      0.12340000</i>
   <i name="PARAM2">      1.00000000</i>
   <i name="PARAM3">      0.00000000</i>
  </separator>
  <separator name="model GW" >
   <i type="int" name="MODEL_GW">     0</i>
   <i name="MODEL_EPS0">     34.34185355</i>
   <i name="MODEL_ALPHA">      1.00000000</i>
  </separator>
  <separator name="linear response parameters" >
   <i type="logical" name="LEPSILON"> F  </i>
   <i type="logical" name="LRPA"> F  </i>
   <i type="logical" name="LNABLA"> F  </i>
   <i type="logical" name="LVEL"> F  </i>
   <i type="int" name="KINTER">     0</i>
   <i name="CSHIFT">      0.10000000</i>
   <i name="OMEGAMAX">     -1.00000000</i>
   <i name="DEG_THRESHOLD">      0.00200000</i>
   <i name="RTIME">     -0.10000000</i>
   <i name="WPLASMAI">      0.00000000</i>
   <v name="DFIELD">      0.00000000      0.00000000      0.00000000</v>
   <v name="WPLASMA">      0.00000000      0.00000000      0.00000000      0.00000000      0.00000000      0.00000000      0.00000000      0.00000000      0.00000000</v>
  </separator>
  <separator name="orbital magnetization" >
   <i type="logical" name="NUCIND"> F  </i>
   <v name="MAGPOS">      0.00000000      0.00000000      0.00000000</v>
   <i type="logical" name="LNICSALL"> T  </i>
   <i type="logical" name="ORBITALMAG"> F  </i>
   <i type="logical" name="LMAGBLOCH"> F  </i>
   <i type="logical" name="LCHIMAG"> F  </i>
   <i type="logical" name="LGAUGE"> T  </i>
   <i type="int" name="MAGATOM">     0</i>
   <v name="MAGDIPOL">      0.00000000      0.00000000      0.00000000</v>
   <v name="AVECCONST">      0.00000000      0.00000000      0.00000000</v>
  </separator>
  <separator name="response functions" >
   <i type="logical" name="LADDER"> F  </i>
   <i type="logical" name="LRPAFORCE"> F  </i>
   <i type="logical" name="LFXC"> F  </i>
   <i type="logical" name="LHARTREE"> T  </i>
   <i type="int" name="IBSE">     0</i>
   <v type="int" name="KPOINT">    -1     0     0     0</v>
   <i type="logical" name="LTCTE"> F  </i>
   <i type="logical" name="LTETE"> F  </i>
   <i type="logical" name="LTRIPLET"> F  </i>
   <i type="logical" name="LFXCEPS"> F  </i>
   <i type="logical" name="LFXHEG"> F  </i>
   <i type="int" name="NATURALO">     2</i>
   <i type="logical" name="L2ORDER"> F  </i>
   <i type="logical" name="LMP2LT"> F  </i>
   <i type="logical" name="LUSEW"> F  </i>
   <i name="ENCUTGW">     -2.00000000</i>
   <i name="ENCUTGWSOFT">     -2.00000000</i>
   <i name="ENCUTLF">     -1.00000000</i>
   <i type="int" name="LMAXMP2">    -1</i>
   <i name="SCISSOR">      0.00000000</i>
   <i type="int" name="NOMEGA">     0</i>
   <i type="int" name="NOMEGAR">     0</i>
   <i type="int" name="NBANDSGW">    -1</i>
   <i type="int" name="NBANDSO">    -1</i>
   <i type="int" name="NBANDSV">    -1</i>
   <i type="int" name="NELM">     1</i>
   <i type="int" name="NELMHF">     1</i>
   <i type="int" name="DIM">     3</i>
   <i type="int" name="ANTIRES">     0</i>
   <i name="OMEGAMAX">    -30.00000000</i>
   <i name="OMEGAMIN">    -30.00000000</i>
   <i name="OMEGATL">   -200.00000000</i>
   <i type="int" name="OMEGAGRID">   140</i>
   <i name="CSHIFT">     -0.10000000</i>
   <i type="logical" name="SELFENERGY"> F  </i>
   <i type="logical" name="LSPECTRAL"> F  </i>
   <i type="logical" name="LSPECTRALGW"> F  </i>
   <i type="logical" name="LSINGLES"> F  </i>
   <i type="logical" name="LFERMIGW"> F  </i>
   <i type="logical" name="ODDONLYGW"> F  </i>
   <i type="logical" name="EVENONLYGW"> F  </i>
   <i type="int" name="NKREDLFX">     1</i>
   <i type="int" name="NKREDLFY">     1</i>
   <i type="int" name="NKREDLFZ">     1</i>
   <i type="int" name="MAXMEM">  2800</i>
   <i type="int" name="TELESCOPE">     0</i>
   <i type="int" name="TAUPAR">     1</i>
   <i type="int" name="OMEGAPAR">    -1</i>
   <i name="LAMBDA">      1.00000000</i>
  </separator>
  <separator name="External order field" >
   <i name="OFIELD_KAPPA">      0.00000000</i>
   <v name="OFIELD_K">      0.00000000      0.00000000      0.00000000</v>
   <i name="OFIELD_Q6_NEAR">      0.00000000</i>
   <i name="OFIELD_Q6_FAR">      0.00000000</i>
   <i name="OFIELD_A">      0.00000000</i>
  </separator>
 </parameters>
 <atominfo>
  <atoms>      13 </atoms>
  <types>       3 </types>
  <array name="atoms" >
   <dimension dim="1">ion</dimension>
   <field type="string">element</field>
   <field type="int">atomtype</field>
   <set>
    <rc><c>Te</c><c>   1</c></rc>
    <rc><c>Te</c><c>   1</c></rc>
    <rc><c>Te</c><c>   1</c></rc>
    <rc><c>Te</c><c>   1</c></rc>
    <rc><c>Te</c><c>   1</c></rc>
    <rc><c>Te</c><c>   1</c></rc>
    <rc><c>Te</c><c>   1</c></rc>
    <rc><c>Te</c><c>   1</c></rc>
    <rc><c>Mo</c><c>   2</c></rc>
    <rc><c>Mo</c><c>   2</c></rc>
    <rc><c>Mo</c><c>   2</c></rc>
    <rc><c>Mo</c><c>   2</c></rc>
    <rc><c>Li</c><c>   3</c></rc>
   </set>
  </array>
  <array name="atomtypes" >
   <dimension dim="1">type</dimension>
   <field type="int">atomspertype</field>
   <field type="string">element</field>
   <field>mass</field>
   <field>valence</field>
   <field type="string">pseudopotential</field>
   <set>
    <rc><c>   8</c><c>Te</c><c>    127.60000000</c><c>      6.00000000</c><c>  PAW_PBE Te 08Apr2002                  </c></rc>
    <rc><c>   4</c><c>Mo</c><c>     95.94000000</c><c>      6.00000000</c><c>  PAW_PBE Mo 08Apr2002                  </c></rc>
    <rc><c>   1</c><c>Li</c><c>      7.01000000</c><c>      1.00000000</c><c>  PAW_PBE Li 17Jan2003                  </c></rc>
   </set>
  </array>
 </atominfo>
 <structure name="initialpos" >
  <crystal>
   <varray name="basis" >
    <v>       3.50344967       0.00000000       0.00000000 </v>
    <v>       0.00000000       6.06808850       0.00000000 </v>
    <v>       0.00000000       0.00000000      35.00000000 </v>
   </varray>
   <i name="volume">    744.07349355 </i>
   <varray name="rec_basis" >
    <v>       0.28543296       0.00000000       0.00000000 </v>
    <v>       0.00000000       0.16479654       0.00000000 </v>
    <v>       0.00000000       0.00000000       0.02857143 </v>
   </varray>
  </crystal>
  <varray name="positions" >
   <v>       0.00000000       0.66666212       0.16114054 </v>
   <v>       0.00000000       0.66666230       0.05820024 </v>
   <v>       0.50000000       0.16666212       0.16114054 </v>
   <v>       0.50000000       0.16666230       0.05820024 </v>
   <v>       0.00000000       0.33333770       0.38027533 </v>
   <v>       0.00000000       0.33333788       0.27733503 </v>
   <v>       0.50000000       0.83333770       0.38027533 </v>
   <v>       0.50000000       0.83333788       0.27733503 </v>
   <v>       0.00000000       0.00000066       0.10961466 </v>
   <v>       0.50000000       0.50000066       0.10961466 </v>
   <v>       0.00000000       0.99999934       0.32886091 </v>
   <v>       0.50000000       0.49999934       0.32886091 </v>
   <v>       0.50000000       0.50000000       0.50000000 </v>
  </varray>
 </structure>
 <calculation>
  <scstep>
   <time name="dav">   10.05   10.05</time>
   <time name="total">   12.69   12.70</time>
   <energy>
    <i name="alphaZ">     48.55020401 </i>
    <i name="ewald">  19800.72441918 </i>
    <i name="hartreedc"> -22353.09562238 </i>
    <i name="XCdc">   -358.90096116 </i>
    <i name="pawpsdc">   2639.71816464 </i>
    <i name="pawaedc">  -2476.57733713 </i>
    <i name="eentropy">      0.00000000 </i>
    <i name="bandstr">    118.39055377 </i>
    <i name="atom">   2661.52855728 </i>
    <i name="e_fr_energy">     80.33797821 </i>
    <i name="e_wo_entrp">     80.33797821 </i>
    <i name="e_0_energy">     80.33797821 </i>
   </energy>
  </scstep>
  <scstep>
   <time name="dav">   12.64   12.71</time>
   <time name="total">   12.67   12.74</time>
   <energy>
    <i name="e_fr_energy">   -378.47611054 </i>
    <i name="e_wo_entrp">   -378.47611054 </i>
    <i name="e_0_energy">   -378.47611054 </i>
   </energy>
  </scstep>
  <scstep>
   <time name="dav">   11.19   11.20</time>
   <time name="total">   11.22   11.23</time>
   <energy>
    <i name="e_fr_energy">   -434.57488381 </i>
    <i name="e_wo_entrp">   -434.57488381 </i>
    <i name="e_0_energy">   -434.57488381 </i>
   </energy>
  </scstep>
  <scstep>
   <time name="dav">   13.57   13.57</time>
   <time name="total">   13.61   13.61</time>
   <energy>
    <i name="e_fr_energy">   -438.06707063 </i>
    <i name="e_wo_entrp">   -438.06707063 </i>
    <i name="e_0_energy">   -438.06707063 </i>
   </energy>
  </scstep>
  <scstep>
   <time name="dav">   13.24   13.27</time>
   <time name="total">   14.99   15.02</time>
   <energy>
    <i name="e_fr_energy">   -438.17239501 </i>
    <i name="e_wo_entrp">   -438.17239501 </i>
    <i name="e_0_energy">   -438.17239501 </i>
   </energy>
  </scstep>
  <scstep>
   <time name="dav">   12.19   12.19</time>
   <time name="total">   16.40   16.40</time>
   <energy>
    <i name="e_fr_energy">   -442.16930098 </i>
    <i name="e_wo_entrp">   -442.16930098 </i>
    <i name="e_0_energy">   -442.16930098 </i>
   </energy>
  </scstep>
  <scstep>
   <time name="dav">   13.96   13.98</time>
   <time name="total">   18.20   18.23</time>
   <energy>
    <i name="e_fr_energy">   -448.69418029 </i>
    <i name="e_wo_entrp">   -448.69418029 </i>
    <i name="e_0_energy">   -448.69418029 </i>
   </energy>
  </scstep>
  <scstep>
   <time name="dav">   13.59   13.62</time>
   <time name="total">   17.84   17.86</time>
   <energy>
    <i name="e_fr_energy">   -452.94861275 </i>
    <i name="e_wo_entrp">   -452.94861275 </i>
    <i name="e_0_energy">   -452.94861275 </i>
   </energy>
  </scstep>
  <scstep>
   <time name="dav">   12.39   12.39</time>
   <time name="total">   16.62   16.62</time>
   <energy>
    <i name="e_fr_energy">   -440.75282037 </i>
    <i name="e_wo_entrp">   -440.75282037 </i>
    <i name="e_0_energy">   -440.75282037 </i>
   </energy>
  </scstep>
  <scstep>
   <time name="dav">   12.64   12.70</time>
   <time name="total">   16.87   16.92</time>
   <energy>
    <i name="e_fr_energy">   -440.11025924 </i>
    <i name="e_wo_entrp">   -440.11025924 </i>
    <i name="e_0_energy">   -440.11025924 </i>
   </energy>
  </scstep>
  <scstep>
   <time name="dav">   11.76   11.76</time>
   <time name="total">   15.99   15.98</time>
   <energy>
    <i name="e_fr_energy">   -440.35024977 </i>
    <i name="e_wo_entrp">   -440.35024977 </i>
    <i name="e_0_energy">   -440.35024977 </i>
   </energy>
  </scstep>
  <scstep>
   <time name="dav">   13.02   13.05</time>
   <time name="total">   17.23   17.26</time>
   <energy>
    <i name="e_fr_energy">   -440.35215373 </i>
    <i name="e_wo_entrp">   -440.35215373 </i>
    <i name="e_0_energy">   -440.35215373 </i>
   </energy>
  </scstep>
  <scstep>
   <time name="dav">   12.59   12.59</time>
   <time name="total">   16.82   16.83</time>
   <energy>
    <i name="e_fr_energy">   -440.34573852 </i>
    <i name="e_wo_entrp">   -440.34573852 </i>
    <i name="e_0_energy">   -440.34573852 </i>
   </energy>
  </scstep>
  <scstep>
   <time name="dav">   13.40   13.43</time>
   <time name="total">   17.69   17.72</time>
   <energy>
    <i name="e_fr_energy">   -440.33354547 </i>
    <i name="e_wo_entrp">   -440.33354547 </i>
    <i name="e_0_energy">   -440.33354547 </i>
   </energy>
  </scstep>
  <scstep>
   <time name="dav">   11.55   11.54</time>
   <time name="total">   15.78   15.78</time>
   <energy>
    <i name="e_fr_energy">   -440.32873198 </i>
    <i name="e_wo_entrp">   -440.32873198 </i>
    <i name="e_0_energy">   -440.32873198 </i>
   </energy>
  </scstep>
  <scstep>
   <time name="dav">   12.50   12.52</time>
   <time name="total">   16.71   16.74</time>
   <energy>
    <i name="e_fr_energy">   -440.34454819 </i>
    <i name="e_wo_entrp">   -440.34454819 </i>
    <i name="e_0_energy">   -440.34454819 </i>
   </energy>
  </scstep>
  <scstep>
   <time name="dav">   12.49   12.49</time>
   <time name="total">   16.71   16.71</time>
   <energy>
    <i name="e_fr_energy">   -440.33523887 </i>
    <i name="e_wo_entrp">   -440.33523887 </i>
    <i name="e_0_energy">   -440.33523887 </i>
   </energy>
  </scstep>
  <scstep>
   <time name="dav">   11.94   11.94</time>
   <time name="total">   16.16   16.18</time>
   <energy>
    <i name="e_fr_energy">   -440.33213426 </i>
    <i name="e_wo_entrp">   -440.33213426 </i>
    <i name="e_0_energy">   -440.33213426 </i>
   </energy>
  </scstep>
  <scstep>
   <time name="dav">    9.57    9.57</time>
   <time name="total">   13.79   13.80</time>
   <energy>
    <i name="e_fr_energy">   -440.33103199 </i>
    <i name="e_wo_entrp">   -440.33103199 </i>
    <i name="e_0_energy">   -440.33103199 </i>
   </energy>
  </scstep>
  <scstep>
   <time name="dav">   13.00   13.00</time>
   <time name="total">   17.23   17.24</time>
   <energy>
    <i name="e_fr_energy">   -440.32310692 </i>
    <i name="e_wo_entrp">   -440.32310692 </i>
    <i name="e_0_energy">   -440.32310692 </i>
   </energy>
  </scstep>
  <scstep>
   <time name="dav">   12.11   12.11</time>
   <time name="total">   16.34   16.34</time>
   <energy>
    <i name="e_fr_energy">   -440.32215298 </i>
    <i name="e_wo_entrp">   -440.32215298 </i>
    <i name="e_0_energy">   -440.32215298 </i>
   </energy>
  </scstep>
  <scstep>
   <time name="dav">   11.45   11.45</time>
   <time name="total">   15.72   15.74</time>
   <energy>
    <i name="e_fr_energy">   -440.32162270 </i>
    <i name="e_wo_entrp">   -440.32162270 </i>
    <i name="e_0_energy">   -440.32162270 </i>
   </energy>
  </scstep>
  <scstep>
   <time name="dav">   12.34   12.36</time>
   <time name="total">   16.54   16.57</time>
   <energy>
    <i name="e_fr_energy">   -440.32143357 </i>
    <i name="e_wo_entrp">   -440.32143357 </i>
    <i name="e_0_energy">   -440.32143357 </i>
   </energy>
  </scstep>
  <scstep>
   <time name="dav">   11.69   11.70</time>
   <time name="total">   15.91   15.91</time>
   <energy>
    <i name="e_fr_energy">   -440.32132091 </i>
    <i name="e_wo_entrp">   -440.32132091 </i>
    <i name="e_0_energy">   -440.32132091 </i>
   </energy>
  </scstep>
  <scstep>
   <time name="dav">    9.81    9.81</time>
   <time name="total">   14.03   14.05</time>
   <energy>
    <i name="e_fr_energy">   -440.32111797 </i>
    <i name="e_wo_entrp">   -440.32111797 </i>
    <i name="e_0_energy">   -440.32111797 </i>
   </energy>
  </scstep>
  <scstep>
   <time name="dav">    9.93    9.93</time>
   <time name="total">   14.13   14.13</time>
   <energy>
    <i name="e_fr_energy">   -440.32074300 </i>
    <i name="e_wo_entrp">   -440.32074300 </i>
    <i name="e_0_energy">   -440.32074300 </i>
   </energy>
  </scstep>
  <scstep>
   <time name="dav">   11.00   11.00</time>
   <time name="total">   15.21   15.21</time>
   <energy>
    <i name="e_fr_energy">   -440.31999315 </i>
    <i name="e_wo_entrp">   -440.31999315 </i>
    <i name="e_0_energy">   -440.31999315 </i>
   </energy>
  </scstep>
  <scstep>
   <time name="dav">    9.52    9.52</time>
   <time name="total">   13.77   13.79</time>
   <energy>
    <i name="e_fr_energy">   -440.31986347 </i>
    <i name="e_wo_entrp">   -440.31986347 </i>
    <i name="e_0_energy">   -440.31986347 </i>
   </energy>
  </scstep>
  <scstep>
   <time name="dav">    9.93    9.96</time>
   <time name="total">   14.16   14.20</time>
   <energy>
    <i name="e_fr_energy">   -440.31968789 </i>
    <i name="e_wo_entrp">   -440.31968789 </i>
    <i name="e_0_energy">   -440.31968789 </i>
   </energy>
  </scstep>
  <scstep>
   <time name="dav">   11.73   11.75</time>
   <time name="total">   16.02   16.04</time>
   <energy>
    <i name="e_fr_energy">   -440.31933592 </i>
    <i name="e_wo_entrp">   -440.31933592 </i>
    <i name="e_0_energy">   -440.31933592 </i>
   </energy>
  </scstep>
  <scstep>
   <time name="dav">    9.66    9.67</time>
   <time name="total">   13.89   13.89</time>
   <energy>
    <i name="e_fr_energy">   -440.31898613 </i>
    <i name="e_wo_entrp">   -440.31898613 </i>
    <i name="e_0_energy">   -440.31898613 </i>
   </energy>
  </scstep>
  <scstep>
   <time name="dav">   10.56   10.58</time>
   <time name="total">   14.80   14.82</time>
   <energy>
    <i name="e_fr_energy">   -440.31826092 </i>
    <i name="e_wo_entrp">   -440.31826092 </i>
    <i name="e_0_energy">   -440.31826092 </i>
   </energy>
  </scstep>
  <scstep>
   <time name="dav">   10.63   10.64</time>
   <time name="total">   14.89   14.90</time>
   <energy>
    <i name="e_fr_energy">   -440.31781295 </i>
    <i name="e_wo_entrp">   -440.31781295 </i>
    <i name="e_0_energy">   -440.31781295 </i>
   </energy>
  </scstep>
  <scstep>
   <time name="dav">    9.85    9.87</time>
   <time name="total">   14.06   14.08</time>
   <energy>
    <i name="e_fr_energy">   -440.31723593 </i>
    <i name="e_wo_entrp">   -440.31723593 </i>
    <i name="e_0_energy">   -440.31723593 </i>
   </energy>
  </scstep>
  <scstep>
   <time name="dav">   12.67   12.68</time>
   <time name="total">   16.88   16.89</time>
   <energy>
    <i name="e_fr_energy">   -440.31588152 </i>
    <i name="e_wo_entrp">   -440.31588152 </i>
    <i name="e_0_energy">   -440.31588152 </i>
   </energy>
  </scstep>
  <scstep>
   <time name="dav">   10.77   10.79</time>
   <time name="total">   14.99   15.01</time>
   <energy>
    <i name="e_fr_energy">   -440.31593753 </i>
    <i name="e_wo_entrp">   -440.31593753 </i>
    <i name="e_0_energy">   -440.31593753 </i>
   </energy>
  </scstep>
  <scstep>
   <time name="dav">    9.72    9.72</time>
   <time name="total">   13.99   14.00</time>
   <energy>
    <i name="e_fr_energy">   -440.31579584 </i>
    <i name="e_wo_entrp">   -440.31579584 </i>
    <i name="e_0_energy">   -440.31579584 </i>
   </energy>
  </scstep>
  <scstep>
   <time name="dav">   10.50   10.52</time>
   <time name="total">   13.01   13.04</time>
   <energy>
    <i name="alphaZ">     48.55020401 </i>
    <i name="ewald">  19800.72441918 </i>
    <i name="hartreedc"> -22402.51862693 </i>
    <i name="XCdc">   -375.75984846 </i>
    <i name="pawpsdc">   5365.71204847 </i>
    <i name="pawaedc">  -5212.12403848 </i>
    <i name="eentropy">      0.00000000 </i>
    <i name="bandstr">   -326.42849680 </i>
    <i name="atom">   2661.52855728 </i>
    <i name="e_fr_energy">   -440.31578172 </i>
    <i name="e_wo_entrp">   -440.31578172 </i>
    <i name="e_0_energy">   -440.31578172 </i>
   </energy>
  </scstep>
  <structure>
   <crystal>
    <varray name="basis" >
     <v>       3.50344967       0.00000000       0.00000000 </v>
     <v>       0.00000000       6.06808850       0.00000000 </v>
     <v>       0.00000000       0.00000000      35.00000000 </v>
    </varray>
    <i name="volume">    744.07349355 </i>
    <varray name="rec_basis" >
     <v>       0.28543296       0.00000000       0.00000000 </v>
     <v>       0.00000000       0.16479654       0.00000000 </v>
     <v>       0.00000000       0.00000000       0.02857143 </v>
    </varray>
   </crystal>
   <varray name="positions" >
    <v>       0.00000000       0.66666212       0.16114054 </v>
    <v>       0.00000000       0.66666230       0.05820024 </v>
    <v>       0.50000000       0.16666212       0.16114054 </v>
    <v>       0.50000000       0.16666230       0.05820024 </v>
    <v>       0.00000000       0.33333770       0.38027533 </v>
    <v>       0.00000000       0.33333788       0.27733503 </v>
    <v>       0.50000000       0.83333770       0.38027533 </v>
    <v>       0.50000000       0.83333788       0.27733503 </v>
    <v>       0.00000000       0.00000066       0.10961466 </v>
    <v>       0.50000000       0.50000066       0.10961466 </v>
    <v>       0.00000000       0.99999934       0.32886091 </v>
    <v>       0.50000000       0.49999934       0.32886091 </v>
    <v>       0.50000000       0.50000000       0.50000000 </v>
   </varray>
  </structure>
  <varray name="forces" >
   <v>       0.00000000       0.00110441      -0.01113271 </v>
   <v>       0.00000000      -0.00068985       0.03933448 </v>
   <v>       0.00000000      -0.00082552      -0.00971176 </v>
   <v>       0.00000000      -0.00154030       0.03980498 </v>
   <v>       0.00000000      -0.00346503       0.00884049 </v>
   <v>       0.00000000       0.00865434       0.00621759 </v>
   <v>       0.00000000       0.00703624       0.03577037 </v>
   <v>       0.00000000      -0.00159746       0.01070213 </v>
   <v>       0.00000000      -0.00033468       0.03405793 </v>
   <v>       0.00000000       0.00053793       0.03695445 </v>
   <v>       0.00000000      -0.00332245      -0.09085986 </v>
   <v>       0.00000000      -0.00994456      -0.00977890 </v>
   <v>       0.00000000       0.00438693      -0.09019918 </v>
  </varray>
  <varray name="stress" >
   <v>      -3.66400168       0.00000000       0.00000000 </v>
   <v>       0.00000000      -2.73064222       0.05513247 </v>
   <v>       0.00000000       0.05510290      -5.96052424 </v>
  </varray>
  <energy>
   <i name="e_fr_energy">   -440.31578172 </i>
   <i name="e_wo_entrp">   -440.31578172 </i>
   <i name="e_0_energy">      0.00000000 </i>
  </energy>
  <time name="totalsc">  621.94  622.78</time>
  <eigenvalues>
   <array>
    <dimension dim="1">band</dimension>
    <dimension dim="2">kpoint</dimension>
    <dimension dim="3">spin</dimension>
    <field>eigene</field>
    <field>occ</field>
    <set>
     <set comment="spin 1">
      <set comment="kpoint 1">
       <r>  -13.2153    1.0000 </r>
       <r>  -13.1620    1.0000 </r>
       <r>  -12.2599    1.0000 </r>
       <r>  -12.1760    1.0000 </r>
       <r>  -11.0714    1.0000 </r>
       <r>  -11.0394    1.0000 </r>
       <r>  -10.7366    1.0000 </r>
       <r>  -10.6989    1.0000 </r>
       <r>   -5.7506    1.0000 </r>
       <r>   -5.7247    1.0000 </r>
       <r>   -5.5011    1.0000 </r>
       <r>   -5.2075    1.0000 </r>
       <r>   -4.8897    1.0000 </r>
       <r>   -4.8020    1.0000 </r>
       <r>   -3.6153    1.0000 </r>
       <r>   -3.5600    1.0000 </r>
       <r>   -2.4143    1.0000 </r>
       <r>   -2.3898    1.0000 </r>
       <r>   -2.3572    1.0000 </r>
       <r>   -1.9604    1.0000 </r>
       <r>   -1.7316    1.0000 </r>
       <r>   -1.7128    1.0000 </r>
       <r>   -1.6792    1.0000 </r>
       <r>   -1.6713    1.0000 </r>
       <r>   -1.6629    1.0000 </r>
       <r>   -1.6612    1.0000 </r>
       <r>   -0.9821    1.0000 </r>
       <r>   -0.9175    1.0000 </r>
       <r>   -0.8987    1.0000 </r>
       <r>   -0.8907    1.0000 </r>
       <r>   -0.8791    1.0000 </r>
       <r>   -0.8673    1.0000 </r>
       <r>   -0.7592    1.0000 </r>
       <r>   -0.3538    1.0000 </r>
       <r>   -0.2237    1.0000 </r>
       <r>   -0.1853    1.0000 </r>
       <r>    0.4993    1.0000 </r>
       <r>    1.6375    0.0000 </r>
       <r>    1.6572    0.0000 </r>
       <r>    1.9121    0.0000 </r>
       <r>    1.9695    0.0000 </r>
       <r>    2.9538    0.0000 </r>
       <r>    3.2702    0.0000 </r>
       <r>    3.3468    0.0000 </r>
      </set>
      <set comment="kpoint 2">
       <r>  -13.1600    1.0000 </r>
       <r>  -13.1068    1.0000 </r>
       <r>  -12.2190    1.0000 </r>
       <r>  -12.1359    1.0000 </r>
       <r>  -11.0422    1.0000 </r>
       <r>  -11.0105    1.0000 </r>
       <r>  -10.7129    1.0000 </r>
       <r>  -10.6758    1.0000 </r>
       <r>   -5.6867    1.0000 </r>
       <r>   -5.6609    1.0000 </r>
       <r>   -5.4400    1.0000 </r>
       <r>   -5.1470    1.0000 </r>
       <r>   -4.8692    1.0000 </r>
       <r>   -4.7862    1.0000 </r>
       <r>   -3.5942    1.0000 </r>
       <r>   -3.5365    1.0000 </r>
       <r>   -2.5292    1.0000 </r>
       <r>   -2.5005    1.0000 </r>
       <r>   -2.4100    1.0000 </r>
       <r>   -1.9245    1.0000 </r>
       <r>   -1.8581    1.0000 </r>
       <r>   -1.8385    1.0000 </r>
       <r>   -1.7946    1.0000 </r>
       <r>   -1.6533    1.0000 </r>
       <r>   -1.6326    1.0000 </r>
       <r>   -1.6137    1.0000 </r>
       <r>   -1.2622    1.0000 </r>
       <r>   -1.2181    1.0000 </r>
       <r>   -0.9919    1.0000 </r>
       <r>   -0.9727    1.0000 </r>
       <r>   -0.8984    1.0000 </r>
       <r>   -0.8353    1.0000 </r>
       <r>   -0.7229    1.0000 </r>
       <r>   -0.3445    1.0000 </r>
       <r>   -0.2231    1.0000 </r>
       <r>   -0.1827    1.0000 </r>
       <r>    0.5490    1.0000 </r>
       <r>    1.6352    0.0000 </r>
       <r>    1.6780    0.0000 </r>
       <r>    1.9582    0.0000 </r>
       <r>    2.0112    0.0000 </r>
       <r>    2.9447    0.0000 </r>
       <r>    3.1179    0.0000 </r>
       <r>    3.2641    0.0000 </r>
      </set>
      <set comment="kpoint 3">
       <r>  -13.0507    1.0000 </r>
       <r>  -12.9977    1.0000 </r>
       <r>  -12.1383    1.0000 </r>
       <r>  -12.0567    1.0000 </r>
       <r>  -10.9873    1.0000 </r>
       <r>  -10.9561    1.0000 </r>
       <r>  -10.6685    1.0000 </r>
       <r>  -10.6328    1.0000 </r>
       <r>   -5.5614    1.0000 </r>
       <r>   -5.5352    1.0000 </r>
       <r>   -5.3209    1.0000 </r>
       <r>   -5.0295    1.0000 </r>
       <r>   -4.8340    1.0000 </r>
       <r>   -4.7607    1.0000 </r>
       <r>   -3.5593    1.0000 </r>
       <r>   -3.4964    1.0000 </r>
       <r>   -2.7106    1.0000 </r>
       <r>   -2.6720    1.0000 </r>
       <r>   -2.5092    1.0000 </r>
       <r>   -2.0952    1.0000 </r>
       <r>   -2.0745    1.0000 </r>
       <r>   -1.9952    1.0000 </r>
       <r>   -1.8943    1.0000 </r>
       <r>   -1.7831    1.0000 </r>
       <r>   -1.7339    1.0000 </r>
       <r>   -1.6412    1.0000 </r>
       <r>   -1.5426    1.0000 </r>
       <r>   -1.5234    1.0000 </r>
       <r>   -1.1532    1.0000 </r>
       <r>   -1.1328    1.0000 </r>
       <r>   -0.9092    1.0000 </r>
       <r>   -0.7998    1.0000 </r>
       <r>   -0.6845    1.0000 </r>
       <r>   -0.3462    1.0000 </r>
       <r>   -0.2266    1.0000 </r>
       <r>   -0.1639    1.0000 </r>
       <r>    0.6448    1.0000 </r>
       <r>    1.6128    0.0000 </r>
       <r>    1.6813    0.0000 </r>
       <r>    2.0321    0.0000 </r>
       <r>    2.1343    0.0000 </r>
       <r>    2.6878    0.0000 </r>
       <r>    2.7538    0.0000 </r>
       <r>    2.8723    0.0000 </r>
      </set>
      <set comment="kpoint 4">
       <r>  -12.8899    1.0000 </r>
       <r>  -12.8373    1.0000 </r>
       <r>  -12.0198    1.0000 </r>
       <r>  -11.9404    1.0000 </r>
       <r>  -10.9138    1.0000 </r>
       <r>  -10.8835    1.0000 </r>
       <r>  -10.6096    1.0000 </r>
       <r>  -10.5759    1.0000 </r>
       <r>   -5.3799    1.0000 </r>
       <r>   -5.3522    1.0000 </r>
       <r>   -5.1509    1.0000 </r>
       <r>   -4.8630    1.0000 </r>
       <r>   -4.7961    1.0000 </r>
       <r>   -4.7373    1.0000 </r>
       <r>   -3.5293    1.0000 </r>
       <r>   -3.4577    1.0000 </r>
       <r>   -2.9094    1.0000 </r>
       <r>   -2.8545    1.0000 </r>
       <r>   -2.6442    1.0000 </r>
       <r>   -2.4171    1.0000 </r>
       <r>   -2.3950    1.0000 </r>
       <r>   -2.3809    1.0000 </r>
       <r>   -2.3150    1.0000 </r>
       <r>   -2.2281    1.0000 </r>
       <r>   -1.8797    1.0000 </r>
       <r>   -1.6806    1.0000 </r>
       <r>   -1.4272    1.0000 </r>
[...]
       <r>  -11.2124    1.0000 </r>
       <r>  -11.1763    1.0000 </r>
       <r>  -11.0962    1.0000 </r>
       <r>  -11.0631    1.0000 </r>
       <r>  -10.8299    1.0000 </r>
       <r>  -10.7865    1.0000 </r>
       <r>  -10.7499    1.0000 </r>
       <r>  -10.7108    1.0000 </r>
       <r>   -5.6459    1.0000 </r>
       <r>   -5.6199    1.0000 </r>
       <r>   -5.5568    1.0000 </r>
       <r>   -5.5307    1.0000 </r>
       <r>   -4.8239    1.0000 </r>
       <r>   -4.7391    1.0000 </r>
       <r>   -4.7271    1.0000 </r>
       <r>   -4.6381    1.0000 </r>
       <r>   -3.6554    1.0000 </r>
       <r>   -3.6113    1.0000 </r>
       <r>   -3.5742    1.0000 </r>
       <r>   -3.5462    1.0000 </r>
       <r>   -2.4866    1.0000 </r>
       <r>   -2.4554    1.0000 </r>
       <r>   -2.3566    1.0000 </r>
       <r>   -2.3319    1.0000 </r>
       <r>   -1.9455    1.0000 </r>
       <r>   -1.9186    1.0000 </r>
       <r>   -1.6430    1.0000 </r>
       <r>   -1.6348    1.0000 </r>
       <r>   -1.1909    1.0000 </r>
       <r>   -1.1251    1.0000 </r>
       <r>   -1.0311    1.0000 </r>
       <r>   -0.9114    1.0000 </r>
       <r>   -0.2895    1.0000 </r>
       <r>   -0.2472    1.0000 </r>
       <r>   -0.2394    1.0000 </r>
       <r>   -0.2041    1.0000 </r>
       <r>    1.6312    0.0000 </r>
       <r>    1.6745    0.0000 </r>
       <r>    1.6790    0.0000 </r>
       <r>    1.6968    0.0000 </r>
       <r>    1.7773    0.0000 </r>
       <r>    1.8951    0.0000 </r>
       <r>    1.9102    0.0000 </r>
       <r>    1.9670    0.0000 </r>
      </set>
      <set comment="kpoint 50">
       <r>  -11.0868    1.0000 </r>
       <r>  -11.0543    1.0000 </r>
       <r>  -11.0456    1.0000 </r>
       <r>  -11.0147    1.0000 </r>
       <r>  -10.7473    1.0000 </r>
       <r>  -10.7192    1.0000 </r>
       <r>  -10.7086    1.0000 </r>
       <r>  -10.6827    1.0000 </r>
       <r>   -5.7705    1.0000 </r>
       <r>   -5.7444    1.0000 </r>
       <r>   -5.7388    1.0000 </r>
       <r>   -5.7129    1.0000 </r>
       <r>   -4.9110    1.0000 </r>
       <r>   -4.8773    1.0000 </r>
       <r>   -4.8238    1.0000 </r>
       <r>   -4.7891    1.0000 </r>
       <r>   -3.6209    1.0000 </r>
       <r>   -3.6057    1.0000 </r>
       <r>   -3.5629    1.0000 </r>
       <r>   -3.5552    1.0000 </r>
       <r>   -2.4386    1.0000 </r>
       <r>   -2.4143    1.0000 </r>
       <r>   -2.3982    1.0000 </r>
       <r>   -2.3738    1.0000 </r>
       <r>   -1.9657    1.0000 </r>
       <r>   -1.9558    1.0000 </r>
       <r>   -1.6698    1.0000 </r>
       <r>   -1.6621    1.0000 </r>
       <r>   -1.0136    1.0000 </r>
       <r>   -0.9627    1.0000 </r>
       <r>   -0.9283    1.0000 </r>
       <r>   -0.8485    1.0000 </r>
       <r>   -0.2331    1.0000 </r>
       <r>   -0.2095    1.0000 </r>
       <r>   -0.1878    1.0000 </r>
       <r>   -0.1802    1.0000 </r>
       <r>    1.6325    0.0000 </r>
       <r>    1.6390    0.0000 </r>
       <r>    1.6560    0.0000 </r>
       <r>    1.6590    0.0000 </r>
       <r>    1.8900    0.0000 </r>
       <r>    1.9438    0.0000 </r>
       <r>    1.9614    0.0000 </r>
       <r>    1.9814    0.0000 </r>
      </set>
     </set>
    </set>
   </array>
  </eigenvalues>
  <separator name="orbital magnetization" >
   <v name="MAGDIPOLOUT">      0.00000000      0.00000000      0.00000000</v>
  </separator>
  <dos>
   <i name="efermi">      1.12335299 </i>
   <total>
    <array>
     <dimension dim="1">gridpoints</dimension>
     <dimension dim="2">spin</dimension>
     <field>energy</field>
     <field>total</field>
     <field>integrated</field>
     <set>
      <set comment="spin 1">
       <r>   -14.0434     0.0000     0.0000 </r>
       <r>   -13.9826     0.0000     0.0000 </r>
       <r>   -13.9219     0.0000     0.0000 </r>
       <r>   -13.8612     0.0000     0.0000 </r>
       <r>   -13.8005     0.0000     0.0000 </r>
       <r>   -13.7397     0.0000     0.0000 </r>
       <r>   -13.6790     0.0000     0.0000 </r>
       <r>   -13.6183     0.0000     0.0000 </r>
       <r>   -13.5576     0.0000     0.0000 </r>
       <r>   -13.4968     0.0000     0.0000 </r>
       <r>   -13.4361     0.0000     0.0000 </r>
       <r>   -13.3754     0.0000     0.0000 </r>
       <r>   -13.3146     0.0000     0.0000 </r>
       <r>   -13.2539     0.0000     0.0000 </r>
       <r>   -13.1932     0.8513     0.0264 </r>
       <r>   -13.1325     1.8870     0.1211 </r>
       <r>   -13.0717     1.9674     0.2423 </r>
       <r>   -13.0110     2.0653     0.3638 </r>
       <r>   -12.9503     2.0500     0.4877 </r>
       <r>   -12.8896     2.0327     0.6112 </r>
       <r>   -12.8288     2.0672     0.7364 </r>
       <r>   -12.7681     2.0982     0.8632 </r>
       <r>   -12.7074     2.1210     0.9916 </r>
       <r>   -12.6466     2.1382     1.1208 </r>
       <r>   -12.5859     2.1590     1.2510 </r>
       <r>   -12.5252     2.2109     1.3836 </r>
       <r>   -12.4645     2.2582     1.5423 </r>
       <r>   -12.4037     2.1934     1.7010 </r>
       <r>   -12.3430     1.9980     1.8284 </r>
       <r>   -12.2823     1.8467     1.9445 </r>
       <r>   -12.2216     3.3109     2.1109 </r>
       <r>   -12.1608     4.8176     2.3544 </r>
       <r>   -12.1001     5.3889     2.6935 </r>
       <r>   -12.0394     5.5311     3.0238 </r>
       <r>   -11.9786     5.5876     3.3616 </r>
       <r>   -11.9179     5.3494     3.7011 </r>
       <r>   -11.8572     4.8902     4.0174 </r>
       <r>   -11.7965     5.5690     4.3334 </r>
       <r>   -11.7357     6.3968     4.7022 </r>
       <r>   -11.6750     6.1303     5.0803 </r>
       <r>   -11.6143     5.9425     5.4688 </r>
       <r>   -11.5536     5.7623     5.8244 </r>
       <r>   -11.4928     6.5712     6.2001 </r>
       <r>   -11.4321     7.3196     6.6146 </r>
       <r>   -11.3714     7.3944     7.0571 </r>
       <r>   -11.3106     7.7183     7.5164 </r>
       <r>   -11.2499     8.8844     8.0127 </r>
       <r>   -11.1892     9.2279     8.5779 </r>
       <r>   -11.1285     9.6062     9.1538 </r>
       <r>   -11.0677    10.4852     9.7693 </r>
       <r>   -11.0070    12.5028    10.6215 </r>
       <r>   -10.9463     8.6395    11.3826 </r>
       <r>   -10.8855     8.5230    11.8859 </r>
       <r>   -10.8248    12.1374    12.5835 </r>
       <r>   -10.7641    12.2709    13.3998 </r>
       <r>   -10.7034    10.9754    14.1248 </r>
       <r>   -10.6426     9.7193    14.7649 </r>
       <r>   -10.5819     6.4934    15.2471 </r>
       <r>   -10.5212     5.8787    15.6165 </r>
       <r>   -10.4605     2.6118    15.9382 </r>
       <r>   -10.3997     0.0000    16.0000 </r>
       <r>   -10.3390     0.0000    16.0000 </r>
       <r>   -10.2783     0.0000    16.0000 </r>
       <r>   -10.2175     0.0000    16.0000 </r>
       <r>   -10.1568     0.0000    16.0000 </r>
       <r>   -10.0961     0.0000    16.0000 </r>
       <r>   -10.0354     0.0000    16.0000 </r>
       <r>    -9.9746     0.0000    16.0000 </r>
       <r>    -9.9139     0.0000    16.0000 </r>
       <r>    -9.8532     0.0000    16.0000 </r>
       <r>    -9.7925     0.0000    16.0000 </r>
       <r>    -9.7317     0.0000    16.0000 </r>
       <r>    -9.6710     0.0000    16.0000 </r>
       <r>    -9.6103     0.0000    16.0000 </r>
       <r>    -9.5495     0.0000    16.0000 </r>
       <r>    -9.4888     0.0000    16.0000 </r>
       <r>    -9.4281     0.0000    16.0000 </r>
       <r>    -9.3674     0.0000    16.0000 </r>
       <r>    -9.3066     0.0000    16.0000 </r>
       <r>    -9.2459     0.0000    16.0000 </r>
       <r>    -9.1852     0.0000    16.0000 </r>
       <r>    -9.1245     0.0000    16.0000 </r>
       <r>    -9.0637     0.0000    16.0000 </r>
       <r>    -9.0030     0.0000    16.0000 </r>
       <r>    -8.9423     0.0000    16.0000 </r>
       <r>    -8.8815     0.0000    16.0000 </r>
       <r>    -8.8208     0.0000    16.0000 </r>
       <r>    -8.7601     0.0000    16.0000 </r>
       <r>    -8.6994     0.0000    16.0000 </r>
       <r>    -8.6386     0.0000    16.0000 </r>
       <r>    -8.5779     0.0000    16.0000 </r>
       <r>    -8.5172     0.0000    16.0000 </r>
       <r>    -8.4565     0.0000    16.0000 </r>
       <r>    -8.3957     0.0000    16.0000 </r>
       <r>    -8.3350     0.0000    16.0000 </r>
       <r>    -8.2743     0.0000    16.0000 </r>
       <r>    -8.2135     0.0000    16.0000 </r>
       <r>    -8.1528     0.0000    16.0000 </r>
       <r>    -8.0921     0.0000    16.0000 </r>
       <r>    -8.0314     0.0000    16.0000 </r>
       <r>    -7.9706     0.0000    16.0000 </r>
       <r>    -7.9099     0.0000    16.0000 </r>
       <r>    -7.8492     0.0000    16.0000 </r>
       <r>    -7.7885     0.0000    16.0000 </r>
       <r>    -7.7277     0.0000    16.0000 </r>
       <r>    -7.6670     0.0000    16.0000 </r>
       <r>    -7.6063     0.0000    16.0000 </r>
       <r>    -7.5455     0.0000    16.0000 </r>
       <r>    -7.4848     0.0000    16.0000 </r>
       <r>    -7.4241     0.0000    16.0000 </r>
       <r>    -7.3634     0.0000    16.0000 </r>
       <r>    -7.3026     0.0000    16.0000 </r>
       <r>    -7.2419     0.0000    16.0000 </r>
       <r>    -7.1812     0.0000    16.0000 </r>
       <r>    -7.1204     0.0000    16.0000 </r>
       <r>    -7.0597     0.0000    16.0000 </r>
       <r>    -6.9990     0.0000    16.0000 </r>
       <r>    -6.9383     0.0000    16.0000 </r>
       <r>    -6.8775     0.0000    16.0000 </r>
       <r>    -6.8168     0.0000    16.0000 </r>
       <r>    -6.7561     0.0000    16.0000 </r>
       <r>    -6.6954     0.0000    16.0000 </r>
       <r>    -6.6346     0.0000    16.0000 </r>
       <r>    -6.5739     0.0000    16.0000 </r>
       <r>    -6.5132     0.0000    16.0000 </r>
       <r>    -6.4524     0.0000    16.0000 </r>
       <r>    -6.3917     0.0000    16.0000 </r>
       <r>    -6.3310     0.0000    16.0000 </r>
       <r>    -6.2703     0.0000    16.0000 </r>
       <r>    -6.2095     0.0000    16.0000 </r>
       <r>    -6.1488     0.0000    16.0000 </r>
       <r>    -6.0881     0.0000    16.0000 </r>
       <r>    -6.0274     0.0000    16.0000 </r>
       <r>    -5.9666     0.0000    16.0000 </r>
       <r>    -5.9059     0.0000    16.0000 </r>
       <r>    -5.8452     0.0000    16.0000 </r>
       <r>    -5.7844     0.0000    16.0000 </r>
       <r>    -5.7237     2.1340    16.0958 </r>
       <r>    -5.6630     3.0804    16.2711 </r>
       <r>    -5.6023     3.0992    16.4601 </r>
       <r>    -5.5415     3.2144    16.6509 </r>
       <r>    -5.4808     4.1904    16.8756 </r>
       <r>    -5.4201     4.5832    17.1451 </r>
       <r>    -5.3594     4.3686    17.4126 </r>
       <r>    -5.2986     4.5038    17.6825 </r>
       <r>    -5.2379     4.7598    17.9631 </r>
       <r>    -5.1772     6.0069    18.2951 </r>
       <r>    -5.1164     6.5010    18.6814 </r>
       <r>    -5.0557     7.1815    19.0950 </r>
       <r>    -4.9950     8.0894    19.5578 </r>
       <r>    -4.9343     8.4764    20.1359 </r>
       <r>    -4.8735    10.7980    20.7373 </r>
       <r>    -4.8128    12.1299    21.4445 </r>
       <r>    -4.7521    18.7383    22.4761 </r>
       <r>    -4.6914    14.2937    23.5098 </r>
       <r>    -4.6306    13.2946    24.3330 </r>
       <r>    -4.5699    12.4944    25.1505 </r>
       <r>    -4.5092    10.0517    25.8695 </r>
       <r>    -4.4484     7.3486    26.3623 </r>
       <r>    -4.3877     7.3524    26.8241 </r>
       <r>    -4.3270     7.1738    27.2846 </r>
       <r>    -4.2663     3.1263    27.5269 </r>
       <r>    -4.2055     2.7964    27.7163 </r>
       <r>    -4.1448     2.7236    27.8836 </r>
       <r>    -4.0841     2.6841    28.0477 </r>
       <r>    -4.0234     2.6914    28.2105 </r>
       <r>    -3.9626     3.2962    28.3851 </r>
       <r>    -3.9019     3.9506    28.6055 </r>
       <r>    -3.8412     4.1436    28.8616 </r>
       <r>    -3.7804     5.0852    29.0987 </r>
       <r>    -3.7197     8.6990    29.5794 </r>
       <r>    -3.6590    15.1023    30.2116 </r>
       <r>    -3.5983    19.4858    31.4175 </r>
       <r>    -3.5375    29.8631    32.9436 </r>
       <r>    -3.4768    17.0297    34.1590 </r>
       <r>    -3.4161     8.6610    35.0128 </r>
       <r>    -3.3553     5.7675    35.4993 </r>
       <r>    -3.2946     4.0649    35.8157 </r>
       <r>    -3.2339     3.9756    36.1076 </r>
       <r>    -3.1732     7.2556    36.4318 </r>
       <r>    -3.1124    12.0971    37.0661 </r>
       <r>    -3.0517    10.6029    37.7771 </r>
       <r>    -2.9910    10.1660    38.4749 </r>
       <r>    -2.9303    10.3332    39.1398 </r>
       <r>    -2.8695    10.6110    39.8089 </r>
       <r>    -2.8088    10.1078    40.4707 </r>
       <r>    -2.7481    10.0106    41.1318 </r>
       <r>    -2.6873     9.7833    41.7679 </r>
       <r>    -2.6266     9.4524    42.3493 </r>
       <r>    -2.5659     9.5111    42.9307 </r>
       <r>    -2.5052    10.5631    43.5622 </r>
       <r>    -2.4444    11.2029    44.2215 </r>
       <r>    -2.3837    12.1568    44.9832 </r>
       <r>    -2.3230    10.1415    45.7329 </r>
       <r>    -2.2623     7.0944    46.2489 </r>
       <r>    -2.2015     5.6580    46.6351 </r>
       <r>    -2.1408     5.6898    46.9832 </r>
       <r>    -2.0801     6.4133    47.3698 </r>
       <r>    -2.0193     6.9970    47.7906 </r>
       <r>    -1.9586    11.0187    48.2932 </r>
       <r>    -1.8979    14.9658    49.1481 </r>
       <r>    -1.8372    15.6107    50.0044 </r>
       <r>    -1.7764    13.6891    50.8115 </r>
       <r>    -1.7157    13.4276    51.6519 </r>
       <r>    -1.6550    19.6289    52.5560 </r>
       <r>    -1.5943    13.7721    53.6153 </r>
       <r>    -1.5335    11.4205    54.3676 </r>
       <r>    -1.4728    13.8314    55.1794 </r>
       <r>    -1.4121    12.5195    56.0633 </r>
       <r>    -1.3513    14.5682    56.9326 </r>
       <r>    -1.2906    15.7550    57.9480 </r>
       <r>    -1.2299    13.4654    58.8433 </r>
       <r>    -1.1692    12.2789    59.6264 </r>
       <r>    -1.1084    11.4759    60.4598 </r>
       <r>    -1.0477    11.7608    61.1833 </r>
       <r>    -0.9870    10.1793    61.8585 </r>
       <r>    -0.9263    12.1871    62.5398 </r>
       <r>    -0.8655     5.6297    63.1790 </r>
       <r>    -0.8048    13.9737    63.7938 </r>
       <r>    -0.7441     7.4539    64.4802 </r>
       <r>    -0.6833    14.5628    65.2509 </r>
       <r>    -0.6226     6.7038    65.7130 </r>
       <r>    -0.5619     7.8491    66.2351 </r>
       <r>    -0.5012     8.6347    66.7248 </r>
       <r>    -0.4404    10.5779    67.2996 </r>
       <r>    -0.3797    12.8306    68.0029 </r>
       <r>    -0.3190    11.3309    68.9163 </r>
       <r>    -0.2582    11.7210    69.6353 </r>
       <r>    -0.1975    13.3849    70.6435 </r>
       <r>    -0.1368     6.9043    71.3441 </r>
       <r>    -0.0761     4.2523    71.6641 </r>
       <r>    -0.0153     2.8243    71.8772 </r>
       <r>     0.0454     0.0000    72.0000 </r>
       <r>     0.1061     0.0000    72.0000 </r>
       <r>     0.1668     0.0000    72.0000 </r>
       <r>     0.2276     0.0000    72.0000 </r>
       <r>     0.2883     0.0000    72.0000 </r>
       <r>     0.3490     0.0000    72.0000 </r>
       <r>     0.4098     0.0000    72.0000 </r>
       <r>     0.4705     0.0000    72.0000 </r>
       <r>     0.5312     1.2736    72.0428 </r>
       <r>     0.5919     1.2945    72.1225 </r>
       <r>     0.6527     1.4921    72.2086 </r>
       <r>     0.7134     1.6621    72.3035 </r>
       <r>     0.7741     2.2668    72.4211 </r>
       <r>     0.8348     1.8583    72.5711 </r>
       <r>     0.8956     1.6690    72.6788 </r>
       <r>     0.9563     1.5028    72.7735 </r>
       <r>     1.0170     1.3547    72.8599 </r>
       <r>     1.0778     1.3264    72.9415 </r>
       <r>     1.1385     1.3397    73.0194 </r>
       <r>     1.1992     1.4910    73.1065 </r>
       <r>     1.2599     2.5203    73.2754 </r>
       <r>     1.3207     5.6845    73.5937 </r>
       <r>     1.3814     7.1250    73.9924 </r>
       <r>     1.4421    12.5859    74.5821 </r>
       <r>     1.5028    14.3503    75.4737 </r>
       <r>     1.5636    14.9126    76.3795 </r>
       <r>     1.6243    20.3159    77.3747 </r>
       <r>     1.6850    26.6849    78.9175 </r>
       <r>     1.7458     4.2616    79.5634 </r>
       <r>     1.8065     8.9810    79.9737 </r>
       <r>     1.8672    13.9139    80.6132 </r>
       <r>     1.9279    22.0927    81.6097 </r>
       <r>     1.9887    17.7098    83.1149 </r>
       <r>     2.0494    16.8707    84.3231 </r>
       <r>     2.1101    13.6761    85.2697 </r>
       <r>     2.1708     9.8208    85.9288 </r>
       <r>     2.2316     7.4407    86.4955 </r>
       <r>     2.2923     2.7269    86.7635 </r>
       <r>     2.3530     1.9663    86.9073 </r>
       <r>     2.4138     1.5955    87.0146 </r>
       <r>     2.4745     1.4666    87.1076 </r>
       <r>     2.5352     1.3636    87.1925 </r>
       <r>     2.5959     1.2944    87.2732 </r>
       <r>     2.6567     1.2365    87.3500 </r>
       <r>     2.7174     1.2062    87.4242 </r>
       <r>     2.7781     1.1557    87.4958 </r>
       <r>     2.8388     1.1754    87.5665 </r>
       <r>     2.8996     1.4165    87.6423 </r>
       <r>     2.9603     0.6530    87.7511 </r>
       <r>     3.0210     0.6302    87.7898 </r>
       <r>     3.0818     0.6568    87.8296 </r>
       <r>     3.1425     0.7026    87.8713 </r>
       <r>     3.2032     0.6093    87.9111 </r>
       <r>     3.2639     0.5159    87.9453 </r>
       <r>     3.3247     0.3659    87.9824 </r>
       <r>     3.3854     0.0000    88.0000 </r>
       <r>     3.4461     0.0000    88.0000 </r>
       <r>     3.5069     0.0000    88.0000 </r>
       <r>     3.5676     0.0000    88.0000 </r>
       <r>     3.6283     0.0000    88.0000 </r>
       <r>     3.6890     0.0000    88.0000 </r>
       <r>     3.7498     0.0000    88.0000 </r>
       <r>     3.8105     0.0000    88.0000 </r>
       <r>     3.8712     0.0000    88.0000 </r>
       <r>     3.9319     0.0000    88.0000 </r>
       <r>     3.9927     0.0000    88.0000 </r>
       <r>     4.0534     0.0000    88.0000 </r>
       <r>     4.1141     0.0000    88.0000 </r>
       <r>     4.1749     0.0000    88.0000 </r>
      </set>
     </set>
    </array>
   </total>
  </dos>
 </calculation>
 <structure name="finalpos" >
  <crystal>
   <varray name="basis" >
    <v>       3.50344967       0.00000000       0.00000000 </v>
    <v>       0.00000000       6.06808850       0.00000000 </v>
    <v>       0.00000000       0.00000000      35.00000000 </v>
   </varray>
   <i name="volume">    744.07349355 </i>
   <varray name="rec_basis" >
    <v>       0.28543296       0.00000000       0.00000000 </v>
    <v>       0.00000000       0.16479654       0.00000000 </v>
    <v>       0.00000000       0.00000000       0.02857143 </v>
   </varray>
  </crystal>
  <varray name="positions" >
   <v>       0.00000000       0.66666212       0.16114054 </v>
   <v>       0.00000000       0.66666230       0.05820024 </v>
   <v>       0.50000000       0.16666212       0.16114054 </v>
   <v>       0.50000000       0.16666230       0.05820024 </v>
   <v>       0.00000000       0.33333770       0.38027533 </v>
   <v>       0.00000000       0.33333788       0.27733503 </v>
   <v>       0.50000000       0.83333770       0.38027533 </v>
   <v>       0.50000000       0.83333788       0.27733503 </v>
   <v>       0.00000000       0.00000066       0.10961466 </v>
   <v>       0.50000000       0.50000066       0.10961466 </v>
   <v>       0.00000000       0.99999934       0.32886091 </v>
   <v>       0.50000000       0.49999934       0.32886091 </v>
   <v>       0.50000000       0.50000000       0.50000000 </v>
  </varray>
 </structure>
</modeling>
