<?xml version="1.0" encoding="ISO-8859-1"?>
<modeling>
 <generator>
  <i name="program" type="string">vasp </i>
  <i name="version" type="string">5.4.4.18Apr17-6-g9f103f2a35  </i>
  <i name="subversion" type="string">(build Nov 26 2018 16:29:41) complex            parallel </i>
  <i name="platform" type="string">LinuxIFC </i>
  <i name="date" type="string">2019 06 03 </i>
  <i name="time" type="string">12:56:57 </i>
 </generator>
 <incar>
  <i type="string" name="SYSTEM"> MoTe2</i>
  <i type="string" name="PREC">accurate</i>
  <i type="string" name="ALGO"> Normal</i>
  <i type="logical" name="ADDGRID"> T  </i>
  <i type="int" name="IBRION">    -1</i>
  <i name="EDIFF">      0.00001000</i>
  <i type="int" name="NSW">     0</i>
  <i type="int" name="ISYM">     0</i>
  <i name="ENCUT">    400.00000000</i>
  <i name="POTIM">      0.50000000</i>
  <i type="logical" name="LREAL"> F  </i>
  <i type="int" name="ISMEAR">     0</i>
  <i name="SIGMA">      0.05000000</i>
  <i type="int" name="NWRITE">     1</i>
  <i type="logical" name="LWAVE"> F  </i>
  <i type="logical" name="LCHARG"> T  </i>
  <i type="logical" name="LASPH"> T  </i>
  <v type="int" name="KPOINT_BSE">    -1     0     0     0</v>
  <i type="logical" name="LUSE_VDW"> T  </i>
  <i name="BPARAM">     15.70000000</i>
  <i type="string" name="METAGGA"> SCAN</i>
  <i type="logical" name="LASPH"> T  </i>
 </incar>
 <structure name="primitive_cell" >
  <crystal>
   <varray name="basis" >
    <v>       3.55100000       0.00000000       0.00000000 </v>
    <v>       0.00000000       6.14900000       0.00000000 </v>
    <v>       0.00000000       0.00000000      35.00000000 </v>
   </varray>
   <i name="volume">    764.22846500 </i>
   <varray name="rec_basis" >
    <v>       0.28161081       0.00000000       0.00000000 </v>
    <v>       0.00000000       0.16262807       0.00000000 </v>
    <v>       0.00000000       0.00000000       0.02857143 </v>
   </varray>
  </crystal>
  <varray name="positions" >
   <v>       0.00000000      -0.33331263       0.16062496 </v>
   <v>       0.00000000       0.00002280       0.10965813 </v>
   <v>      -0.50000000      -0.49997588       0.10966283 </v>
   <v>      -0.50000000       0.16666917       0.16062661 </v>
   <v>       0.00000000      -0.33333618       0.05883366 </v>
   <v>       0.00000000       0.33349109       0.27787705 </v>
   <v>      -0.50000000      -0.16681279       0.27787588 </v>
   <v>      -0.50000000       0.16667825       0.05883342 </v>
   <v>       0.00000000      -0.00011011       0.32872400 </v>
   <v>      -0.50000000       0.49995597       0.32885470 </v>
   <v>       0.00000000       0.33312661       0.37979062 </v>
   <v>      -0.50000000      -0.16648600       0.37981714 </v>
  </varray>
 </structure>
 <varray name="primitive_index" >
  <v type="int" >        1 </v>
  <v type="int" >        9 </v>
  <v type="int" >       10 </v>
  <v type="int" >        3 </v>
  <v type="int" >        2 </v>
  <v type="int" >        6 </v>
  <v type="int" >        8 </v>
  <v type="int" >        4 </v>
  <v type="int" >       11 </v>
  <v type="int" >       12 </v>
  <v type="int" >        5 </v>
  <v type="int" >        7 </v>
 </varray>
 <kpoints>
  <generation param="Monkhorst-Pack">
   <v type="int" name="divisions">      20       10        1 </v>
   <v name="usershift">      0.00000000       0.00000000       0.00000000 </v>
   <v name="genvec1">      0.05000000       0.00000000       0.00000000 </v>
   <v name="genvec2">      0.00000000       0.10000000       0.00000000 </v>
   <v name="genvec3">      0.00000000       0.00000000       1.00000000 </v>
   <v name="shift">      0.50000000       0.50000000       0.00000000 </v>
  </generation>
  <varray name="kpointlist" >
   <v>       0.02500000       0.05000000       0.00000000 </v>
   <v>       0.07500000       0.05000000       0.00000000 </v>
   <v>       0.12500000       0.05000000       0.00000000 </v>
   <v>       0.17500000       0.05000000       0.00000000 </v>
   <v>       0.22500000       0.05000000       0.00000000 </v>
   <v>       0.27500000       0.05000000       0.00000000 </v>
   <v>       0.32500000       0.05000000       0.00000000 </v>
   <v>       0.37500000       0.05000000       0.00000000 </v>
   <v>       0.42500000       0.05000000       0.00000000 </v>
   <v>       0.47500000       0.05000000       0.00000000 </v>
   <v>      -0.47500000       0.05000000       0.00000000 </v>
   <v>      -0.42500000       0.05000000       0.00000000 </v>
   <v>      -0.37500000       0.05000000       0.00000000 </v>
   <v>      -0.32500000       0.05000000       0.00000000 </v>
   <v>      -0.27500000       0.05000000       0.00000000 </v>
   <v>      -0.22500000       0.05000000       0.00000000 </v>
   <v>      -0.17500000       0.05000000       0.00000000 </v>
   <v>      -0.12500000       0.05000000       0.00000000 </v>
   <v>      -0.07500000       0.05000000       0.00000000 </v>
   <v>      -0.02500000       0.05000000       0.00000000 </v>
   <v>       0.02500000       0.15000000       0.00000000 </v>
   <v>       0.07500000       0.15000000       0.00000000 </v>
   <v>       0.12500000       0.15000000       0.00000000 </v>
   <v>       0.17500000       0.15000000       0.00000000 </v>
   <v>       0.22500000       0.15000000       0.00000000 </v>
   <v>       0.27500000       0.15000000       0.00000000 </v>
   <v>       0.32500000       0.15000000       0.00000000 </v>
   <v>       0.37500000       0.15000000       0.00000000 </v>
   <v>       0.42500000       0.15000000       0.00000000 </v>
   <v>       0.47500000       0.15000000       0.00000000 </v>
   <v>      -0.47500000       0.15000000       0.00000000 </v>
   <v>      -0.42500000       0.15000000       0.00000000 </v>
   <v>      -0.37500000       0.15000000       0.00000000 </v>
   <v>      -0.32500000       0.15000000       0.00000000 </v>
   <v>      -0.27500000       0.15000000       0.00000000 </v>
   <v>      -0.22500000       0.15000000       0.00000000 </v>
   <v>      -0.17500000       0.15000000       0.00000000 </v>
   <v>      -0.12500000       0.15000000       0.00000000 </v>
   <v>      -0.07500000       0.15000000       0.00000000 </v>
   <v>      -0.02500000       0.15000000       0.00000000 </v>
   <v>       0.02500000       0.25000000       0.00000000 </v>
   <v>       0.07500000       0.25000000       0.00000000 </v>
   <v>       0.12500000       0.25000000       0.00000000 </v>
   <v>       0.17500000       0.25000000       0.00000000 </v>
   <v>       0.22500000       0.25000000       0.00000000 </v>
   <v>       0.27500000       0.25000000       0.00000000 </v>
   <v>       0.32500000       0.25000000       0.00000000 </v>
   <v>       0.37500000       0.25000000       0.00000000 </v>
   <v>       0.42500000       0.25000000       0.00000000 </v>
   <v>       0.47500000       0.25000000       0.00000000 </v>
   <v>      -0.47500000       0.25000000       0.00000000 </v>
   <v>      -0.42500000       0.25000000       0.00000000 </v>
   <v>      -0.37500000       0.25000000       0.00000000 </v>
   <v>      -0.32500000       0.25000000       0.00000000 </v>
   <v>      -0.27500000       0.25000000       0.00000000 </v>
   <v>      -0.22500000       0.25000000       0.00000000 </v>
   <v>      -0.17500000       0.25000000       0.00000000 </v>
   <v>      -0.12500000       0.25000000       0.00000000 </v>
   <v>      -0.07500000       0.25000000       0.00000000 </v>
   <v>      -0.02500000       0.25000000       0.00000000 </v>
   <v>       0.02500000       0.35000000       0.00000000 </v>
   <v>       0.07500000       0.35000000       0.00000000 </v>
   <v>       0.12500000       0.35000000       0.00000000 </v>
   <v>       0.17500000       0.35000000       0.00000000 </v>
   <v>       0.22500000       0.35000000       0.00000000 </v>
   <v>       0.27500000       0.35000000       0.00000000 </v>
   <v>       0.32500000       0.35000000       0.00000000 </v>
   <v>       0.37500000       0.35000000       0.00000000 </v>
   <v>       0.42500000       0.35000000       0.00000000 </v>
   <v>       0.47500000       0.35000000       0.00000000 </v>
   <v>      -0.47500000       0.35000000       0.00000000 </v>
   <v>      -0.42500000       0.35000000       0.00000000 </v>
   <v>      -0.37500000       0.35000000       0.00000000 </v>
   <v>      -0.32500000       0.35000000       0.00000000 </v>
   <v>      -0.27500000       0.35000000       0.00000000 </v>
   <v>      -0.22500000       0.35000000       0.00000000 </v>
   <v>      -0.17500000       0.35000000       0.00000000 </v>
   <v>      -0.12500000       0.35000000       0.00000000 </v>
   <v>      -0.07500000       0.35000000       0.00000000 </v>
   <v>      -0.02500000       0.35000000       0.00000000 </v>
   <v>       0.02500000       0.45000000       0.00000000 </v>
   <v>       0.07500000       0.45000000       0.00000000 </v>
   <v>       0.12500000       0.45000000       0.00000000 </v>
   <v>       0.17500000       0.45000000       0.00000000 </v>
   <v>       0.22500000       0.45000000       0.00000000 </v>
   <v>       0.27500000       0.45000000       0.00000000 </v>
   <v>       0.32500000       0.45000000       0.00000000 </v>
   <v>       0.37500000       0.45000000       0.00000000 </v>
   <v>       0.42500000       0.45000000       0.00000000 </v>
   <v>       0.47500000       0.45000000       0.00000000 </v>
   <v>      -0.47500000       0.45000000       0.00000000 </v>
   <v>      -0.42500000       0.45000000       0.00000000 </v>
   <v>      -0.37500000       0.45000000       0.00000000 </v>
   <v>      -0.32500000       0.45000000       0.00000000 </v>
   <v>      -0.27500000       0.45000000       0.00000000 </v>
   <v>      -0.22500000       0.45000000       0.00000000 </v>
   <v>      -0.17500000       0.45000000       0.00000000 </v>
   <v>      -0.12500000       0.45000000       0.00000000 </v>
   <v>      -0.07500000       0.45000000       0.00000000 </v>
   <v>      -0.02500000       0.45000000       0.00000000 </v>
  </varray>
  <varray name="weights" >
   <v>       0.01000000 </v>
   <v>       0.01000000 </v>
   <v>       0.01000000 </v>
   <v>       0.01000000 </v>
   <v>       0.01000000 </v>
   <v>       0.01000000 </v>
   <v>       0.01000000 </v>
   <v>       0.01000000 </v>
   <v>       0.01000000 </v>
   <v>       0.01000000 </v>
   <v>       0.01000000 </v>
   <v>       0.01000000 </v>
   <v>       0.01000000 </v>
   <v>       0.01000000 </v>
   <v>       0.01000000 </v>
   <v>       0.01000000 </v>
   <v>       0.01000000 </v>
   <v>       0.01000000 </v>
   <v>       0.01000000 </v>
   <v>       0.01000000 </v>
   <v>       0.01000000 </v>
   <v>       0.01000000 </v>
   <v>       0.01000000 </v>
   <v>       0.01000000 </v>
   <v>       0.01000000 </v>
   <v>       0.01000000 </v>
   <v>       0.01000000 </v>
   <v>       0.01000000 </v>
   <v>       0.01000000 </v>
   <v>       0.01000000 </v>
   <v>       0.01000000 </v>
   <v>       0.01000000 </v>
   <v>       0.01000000 </v>
   <v>       0.01000000 </v>
   <v>       0.01000000 </v>
   <v>       0.01000000 </v>
   <v>       0.01000000 </v>
   <v>       0.01000000 </v>
   <v>       0.01000000 </v>
   <v>       0.01000000 </v>
   <v>       0.01000000 </v>
   <v>       0.01000000 </v>
   <v>       0.01000000 </v>
   <v>       0.01000000 </v>
   <v>       0.01000000 </v>
   <v>       0.01000000 </v>
   <v>       0.01000000 </v>
   <v>       0.01000000 </v>
   <v>       0.01000000 </v>
   <v>       0.01000000 </v>
   <v>       0.01000000 </v>
   <v>       0.01000000 </v>
   <v>       0.01000000 </v>
   <v>       0.01000000 </v>
   <v>       0.01000000 </v>
   <v>       0.01000000 </v>
   <v>       0.01000000 </v>
   <v>       0.01000000 </v>
   <v>       0.01000000 </v>
   <v>       0.01000000 </v>
   <v>       0.01000000 </v>
   <v>       0.01000000 </v>
   <v>       0.01000000 </v>
   <v>       0.01000000 </v>
   <v>       0.01000000 </v>
   <v>       0.01000000 </v>
   <v>       0.01000000 </v>
   <v>       0.01000000 </v>
   <v>       0.01000000 </v>
   <v>       0.01000000 </v>
   <v>       0.01000000 </v>
   <v>       0.01000000 </v>
   <v>       0.01000000 </v>
   <v>       0.01000000 </v>
   <v>       0.01000000 </v>
   <v>       0.01000000 </v>
   <v>       0.01000000 </v>
   <v>       0.01000000 </v>
   <v>       0.01000000 </v>
   <v>       0.01000000 </v>
   <v>       0.01000000 </v>
   <v>       0.01000000 </v>
   <v>       0.01000000 </v>
   <v>       0.01000000 </v>
   <v>       0.01000000 </v>
   <v>       0.01000000 </v>
   <v>       0.01000000 </v>
   <v>       0.01000000 </v>
   <v>       0.01000000 </v>
   <v>       0.01000000 </v>
   <v>       0.01000000 </v>
   <v>       0.01000000 </v>
   <v>       0.01000000 </v>
   <v>       0.01000000 </v>
   <v>       0.01000000 </v>
   <v>       0.01000000 </v>
   <v>       0.01000000 </v>
   <v>       0.01000000 </v>
   <v>       0.01000000 </v>
   <v>       0.01000000 </v>
  </varray>
 </kpoints>
 <parameters>
  <separator name="general" >
   <i type="string" name="SYSTEM">MoTe2</i>
   <i type="logical" name="LCOMPAT"> F  </i>
  </separator>
  <separator name="electronic" >
   <i type="string" name="PREC">accura</i>
   <i name="ENMAX">    400.00000000</i>
   <i name="ENAUG">    368.79200000</i>
   <i name="EDIFF">      0.00001000</i>
   <i type="int" name="IALGO">    38</i>
   <i type="int" name="IWAVPR">    10</i>
   <i type="int" name="NBANDS">    48</i>
   <i name="NELECT">     72.00000000</i>
   <i type="int" name="TURBO">     0</i>
   <i type="int" name="IRESTART">     0</i>
   <i type="int" name="NREBOOT">     0</i>
   <i type="int" name="NMIN">     0</i>
   <i name="EREF">      0.00000000</i>
   <separator name="electronic smearing" >
    <i type="int" name="ISMEAR">     0</i>
    <i name="SIGMA">      0.05000000</i>
    <i name="KSPACING">      0.50000000</i>
    <i type="logical" name="KGAMMA"> T  </i>
   </separator>
   <separator name="electronic projectors" >
    <i type="logical" name="LREAL"> F  </i>
    <v name="ROPT">      0.00000000      0.00000000</v>
    <i type="int" name="LMAXPAW">  -100</i>
    <i type="int" name="LMAXMIX">     2</i>
    <i type="logical" name="NLSPLINE"> F  </i>
   </separator>
   <separator name="electronic startup" >
    <i type="int" name="ISTART">     0</i>
    <i type="int" name="ICHARG">     2</i>
    <i type="int" name="INIWAV">     1</i>
   </separator>
   <separator name="electronic spin" >
    <i type="int" name="ISPIN">     1</i>
    <i type="logical" name="LNONCOLLINEAR"> F  </i>
    <v name="MAGMOM">      1.00000000      1.00000000      1.00000000      1.00000000      1.00000000      1.00000000      1.00000000      1.00000000      1.00000000      1.00000000      1.00000000      1.00000000</v>
    <i name="NUPDOWN">     -1.00000000</i>
    <i type="logical" name="LSORBIT"> F  </i>
    <v name="SAXIS">      0.00000000      0.00000000      1.00000000</v>
    <i type="logical" name="LSPIRAL"> F  </i>
    <v name="QSPIRAL">      0.00000000      0.00000000      0.00000000</v>
    <i type="logical" name="LZEROZ"> F  </i>
   </separator>
   <separator name="electronic exchange-correlation" >
    <i type="logical" name="LASPH"> T  </i>
    <i type="logical" name="LMETAGGA"> F  </i>
   </separator>
   <separator name="electronic convergence" >
    <i type="int" name="NELM">    60</i>
    <i type="int" name="NELMDL">    -5</i>
    <i type="int" name="NELMIN">     2</i>
    <i name="ENINI">    400.00000000</i>
    <separator name="electronic convergence detail" >
     <i type="logical" name="LDIAG"> T  </i>
     <i type="logical" name="LSUBROT"> F  </i>
     <i name="WEIMIN">      0.00000000</i>
     <i name="EBREAK">      0.00000005</i>
     <i name="DEPER">      0.30000000</i>
     <i type="int" name="NRMM">     4</i>
     <i name="TIME">      0.40000000</i>
    </separator>
   </separator>
   <separator name="electronic mixer" >
    <i name="AMIX">      0.40000000</i>
    <i name="BMIX">      1.00000000</i>
    <i name="AMIN">      0.10000000</i>
    <i name="AMIX_MAG">      1.60000000</i>
    <i name="BMIX_MAG">      1.00000000</i>
    <separator name="electronic mixer details" >
     <i type="int" name="IMIX">     4</i>
     <i type="logical" name="MIXFIRST"> F  </i>
     <i type="int" name="MAXMIX">   -45</i>
     <i name="WC">    100.00000000</i>
     <i type="int" name="INIMIX">     1</i>
     <i type="int" name="MIXPRE">     1</i>
     <i type="int" name="MREMOVE">     5</i>
    </separator>
   </separator>
   <separator name="electronic dipolcorrection" >
    <i type="logical" name="LDIPOL"> F  </i>
    <i type="logical" name="LMONO"> F  </i>
    <i type="int" name="IDIPOL">     0</i>
    <i name="EPSILON">      1.00000000</i>
    <v name="DIPOL">   -100.00000000   -100.00000000   -100.00000000</v>
    <i name="EFIELD">      0.00000000</i>
   </separator>
  </separator>
  <separator name="grids" >
   <i type="int" name="NGX">    24</i>
   <i type="int" name="NGY">    40</i>
   <i type="int" name="NGZ">   240</i>
   <i type="int" name="NGXF">    48</i>
   <i type="int" name="NGYF">    80</i>
   <i type="int" name="NGZF">   480</i>
   <i type="logical" name="ADDGRID"> T  </i>
  </separator>
  <separator name="ionic" >
   <i type="int" name="NSW">     0</i>
   <i type="int" name="IBRION">    -1</i>
   <i type="int" name="MDALGO">     0</i>
   <i type="int" name="ISIF">     2</i>
   <i name="PSTRESS">      0.00000000</i>
   <i name="EDIFFG">      0.00010000</i>
   <i type="int" name="NFREE">     0</i>
   <i name="POTIM">      0.50000000</i>
   <i name="SMASS">     -3.00000000</i>
   <i name="SCALEE">      1.00000000</i>
  </separator>
  <separator name="ionic md" >
   <i name="TEBEG">      0.00010000</i>
   <i name="TEEND">      0.00010000</i>
   <i type="int" name="NBLOCK">     1</i>
   <i type="int" name="KBLOCK">     1</i>
   <i type="int" name="NPACO">   256</i>
   <i name="APACO">     16.00000000</i>
  </separator>
  <separator name="symmetry" >
   <i type="int" name="ISYM">     0</i>
   <i name="SYMPREC">      0.00001000</i>
  </separator>
  <separator name="dos" >
   <i type="int" name="LORBIT">     0</i>
   <v name="RWIGS">     -1.00000000     -1.00000000</v>
   <i type="int" name="NEDOS">   301</i>
   <i name="EMIN">     10.00000000</i>
   <i name="EMAX">    -10.00000000</i>
   <i name="EFERMI">      0.00000000</i>
  </separator>
  <separator name="writing" >
   <i type="int" name="NWRITE">     1</i>
   <i type="logical" name="LWAVE"> F  </i>
   <i type="logical" name="LDOWNSAMPLE"> F  </i>
   <i type="logical" name="LCHARG"> T  </i>
   <i type="logical" name="LPARD"> F  </i>
   <i type="logical" name="LVTOT"> F  </i>
   <i type="logical" name="LVHAR"> F  </i>
   <i type="logical" name="LELF"> F  </i>
   <i type="logical" name="LOPTICS"> F  </i>
   <v name="STM">      0.00000000      0.00000000      0.00000000      0.00000000      0.00000000      0.00000000      0.00000000</v>
  </separator>
  <separator name="performance" >
   <i type="int" name="NPAR">    16</i>
   <i type="int" name="NSIM">     4</i>
   <i type="int" name="NBLK">    -1</i>
   <i type="logical" name="LPLANE"> T  </i>
   <i type="logical" name="LSCALAPACK"> T  </i>
   <i type="logical" name="LSCAAWARE"> F  </i>
   <i type="logical" name="LSCALU"> F  </i>
   <i type="logical" name="LASYNC"> F  </i>
   <i type="logical" name="LORBITALREAL"> F  </i>
  </separator>
  <separator name="miscellaneous" >
   <i type="int" name="IDIOT">     3</i>
   <i type="int" name="ISPECIAL">     0</i>
   <i type="logical" name="LMUSIC"> F  </i>
   <v name="POMASS">    127.60000000     95.94000000</v>
   <v name="DARWINR">      0.00000000      0.00000000</v>
   <v name="DARWINV">      1.00000000      1.00000000</v>
   <i type="logical" name="LCORR"> T  </i>
  </separator>
  <i type="logical" name="GGA_COMPAT"> T  </i>
  <i type="logical" name="LBERRY"> F  </i>
  <i type="int" name="ICORELEVEL">     0</i>
  <i type="logical" name="LDAU"> F  </i>
  <i type="int" name="I_CONSTRAINED_M">     0</i>
  <separator name="electronic exchange-correlation" >
   <i type="string" name="GGA">--</i>
   <i type="int" name="VOSKOWN">     0</i>
   <i type="logical" name="LHFCALC"> F  </i>
   <i type="string" name="PRECFOCK"></i>
   <i type="logical" name="LSYMGRAD"> F  </i>
   <i type="logical" name="LHFONE"> F  </i>
   <i type="logical" name="LRHFCALC"> F  </i>
   <i type="logical" name="LTHOMAS"> F  </i>
   <i type="logical" name="LMODELHF"> F  </i>
   <i name="ENCUT4O">     -1.00000000</i>
   <i type="int" name="EXXOEP">     0</i>
   <i type="int" name="FOURORBIT">     0</i>
   <i name="AEXX">      0.00000000</i>
   <i name="HFALPHA">      0.00000000</i>
   <i name="MCALPHA">      0.00000000</i>
   <i name="ALDAX">      1.00000000</i>
   <i name="AGGAX">      1.00000000</i>
   <i name="ALDAC">      1.00000000</i>
   <i name="AGGAC">      1.00000000</i>
   <i type="int" name="NKREDX">     1</i>
   <i type="int" name="NKREDY">     1</i>
   <i type="int" name="NKREDZ">     1</i>
   <i type="logical" name="SHIFTRED"> F  </i>
   <i type="logical" name="ODDONLY"> F  </i>
   <i type="logical" name="EVENONLY"> F  </i>
   <i type="int" name="LMAXFOCK">     0</i>
   <i type="int" name="NMAXFOCKAE">     0</i>
   <i type="logical" name="LFOCKAEDFT"> F  </i>
   <i name="HFSCREEN">      0.00000000</i>
   <i name="HFSCREENC">      0.00000000</i>
   <i type="int" name="NBANDSGWLOW">     0</i>
  </separator>
  <separator name="vdW DFT" >
   <i type="logical" name="LUSE_VDW"> T  </i>
   <i name="Zab_VDW">     -0.84910000</i>
   <i name="PARAM1">      0.12340000</i>
   <i name="PARAM2">      1.00000000</i>
   <i name="PARAM3">      0.00000000</i>
  </separator>
  <separator name="model GW" >
   <i type="int" name="MODEL_GW">     0</i>
   <i name="MODEL_EPS0">     38.21142325</i>
   <i name="MODEL_ALPHA">      1.00000000</i>
  </separator>
  <separator name="linear response parameters" >
   <i type="logical" name="LEPSILON"> F  </i>
   <i type="logical" name="LRPA"> F  </i>
   <i type="logical" name="LNABLA"> F  </i>
   <i type="logical" name="LVEL"> F  </i>
   <i type="int" name="KINTER">     0</i>
   <i name="CSHIFT">      0.10000000</i>
   <i name="OMEGAMAX">     -1.00000000</i>
   <i name="DEG_THRESHOLD">      0.00200000</i>
   <i name="RTIME">     -0.10000000</i>
   <i name="WPLASMAI">      0.00000000</i>
   <v name="DFIELD">      0.00000000      0.00000000      0.00000000</v>
   <v name="WPLASMA">      0.00000000      0.00000000      0.00000000      0.00000000      0.00000000      0.00000000      0.00000000      0.00000000      0.00000000</v>
  </separator>
  <separator name="orbital magnetization" >
   <i type="logical" name="NUCIND"> F  </i>
   <v name="MAGPOS">      0.00000000      0.00000000      0.00000000</v>
   <i type="logical" name="LNICSALL"> T  </i>
   <i type="logical" name="ORBITALMAG"> F  </i>
   <i type="logical" name="LMAGBLOCH"> F  </i>
   <i type="logical" name="LCHIMAG"> F  </i>
   <i type="logical" name="LGAUGE"> T  </i>
   <i type="int" name="MAGATOM">     0</i>
   <v name="MAGDIPOL">      0.00000000      0.00000000      0.00000000</v>
   <v name="AVECCONST">      0.00000000      0.00000000      0.00000000</v>
  </separator>
  <separator name="response functions" >
   <i type="logical" name="LADDER"> F  </i>
   <i type="logical" name="LRPAFORCE"> F  </i>
   <i type="logical" name="LFXC"> F  </i>
   <i type="logical" name="LHARTREE"> T  </i>
   <i type="int" name="IBSE">     0</i>
   <v type="int" name="KPOINT">    -1     0     0     0</v>
   <i type="logical" name="LTCTE"> F  </i>
   <i type="logical" name="LTETE"> F  </i>
   <i type="logical" name="LTRIPLET"> F  </i>
   <i type="logical" name="LFXCEPS"> F  </i>
   <i type="logical" name="LFXHEG"> F  </i>
   <i type="int" name="NATURALO">     2</i>
   <i type="logical" name="L2ORDER"> F  </i>
   <i type="logical" name="LMP2LT"> F  </i>
   <i type="logical" name="LUSEW"> F  </i>
   <i name="ENCUTGW">     -2.00000000</i>
   <i name="ENCUTGWSOFT">     -2.00000000</i>
   <i name="ENCUTLF">     -1.00000000</i>
   <i type="int" name="LMAXMP2">    -1</i>
   <i name="SCISSOR">      0.00000000</i>
   <i type="int" name="NOMEGA">     0</i>
   <i type="int" name="NOMEGAR">     0</i>
   <i type="int" name="NBANDSGW">    -1</i>
   <i type="int" name="NBANDSO">    -1</i>
   <i type="int" name="NBANDSV">    -1</i>
   <i type="int" name="NELM">     1</i>
   <i type="int" name="NELMHF">     1</i>
   <i type="int" name="DIM">     3</i>
   <i type="int" name="ANTIRES">     0</i>
   <i name="OMEGAMAX">    -30.00000000</i>
   <i name="OMEGAMIN">    -30.00000000</i>
   <i name="OMEGATL">   -200.00000000</i>
   <i type="int" name="OMEGAGRID">   140</i>
   <i name="CSHIFT">     -0.10000000</i>
   <i type="logical" name="SELFENERGY"> F  </i>
   <i type="logical" name="LSPECTRAL"> F  </i>
   <i type="logical" name="LSPECTRALGW"> F  </i>
   <i type="logical" name="LSINGLES"> F  </i>
   <i type="logical" name="LFERMIGW"> F  </i>
   <i type="logical" name="ODDONLYGW"> F  </i>
   <i type="logical" name="EVENONLYGW"> F  </i>
   <i type="int" name="NKREDLFX">     1</i>
   <i type="int" name="NKREDLFY">     1</i>
   <i type="int" name="NKREDLFZ">     1</i>
   <i type="int" name="MAXMEM">  2800</i>
   <i type="int" name="TELESCOPE">     0</i>
   <i type="int" name="TAUPAR">     1</i>
   <i type="int" name="OMEGAPAR">    -1</i>
   <i name="LAMBDA">      1.00000000</i>
  </separator>
  <separator name="External order field" >
   <i name="OFIELD_KAPPA">      0.00000000</i>
   <v name="OFIELD_K">      0.00000000      0.00000000      0.00000000</v>
   <i name="OFIELD_Q6_NEAR">      0.00000000</i>
   <i name="OFIELD_Q6_FAR">      0.00000000</i>
   <i name="OFIELD_A">      0.00000000</i>
  </separator>
 </parameters>
 <atominfo>
  <atoms>      12 </atoms>
  <types>       2 </types>
  <array name="atoms" >
   <dimension dim="1">ion</dimension>
   <field type="string">element</field>
   <field type="int">atomtype</field>
   <set>
    <rc><c>Te</c><c>   1</c></rc>
    <rc><c>Te</c><c>   1</c></rc>
    <rc><c>Te</c><c>   1</c></rc>
    <rc><c>Te</c><c>   1</c></rc>
    <rc><c>Te</c><c>   1</c></rc>
    <rc><c>Te</c><c>   1</c></rc>
    <rc><c>Te</c><c>   1</c></rc>
    <rc><c>Te</c><c>   1</c></rc>
    <rc><c>Mo</c><c>   2</c></rc>
    <rc><c>Mo</c><c>   2</c></rc>
    <rc><c>Mo</c><c>   2</c></rc>
    <rc><c>Mo</c><c>   2</c></rc>
   </set>
  </array>
  <array name="atomtypes" >
   <dimension dim="1">type</dimension>
   <field type="int">atomspertype</field>
   <field type="string">element</field>
   <field>mass</field>
   <field>valence</field>
   <field type="string">pseudopotential</field>
   <set>
    <rc><c>   8</c><c>Te</c><c>    127.60000000</c><c>      6.00000000</c><c>  PAW_PBE Te 08Apr2002                  </c></rc>
    <rc><c>   4</c><c>Mo</c><c>     95.94000000</c><c>      6.00000000</c><c>  PAW_PBE Mo 08Apr2002                  </c></rc>
   </set>
  </array>
 </atominfo>
 <structure name="initialpos" >
  <crystal>
   <varray name="basis" >
    <v>       3.55100000       0.00000000       0.00000000 </v>
    <v>       0.00000000       6.14900000       0.00000000 </v>
    <v>       0.00000000       0.00000000      35.00000000 </v>
   </varray>
   <i name="volume">    764.22846500 </i>
   <varray name="rec_basis" >
    <v>       0.28161081       0.00000000       0.00000000 </v>
    <v>       0.00000000       0.16262807       0.00000000 </v>
    <v>       0.00000000       0.00000000       0.02857143 </v>
   </varray>
  </crystal>
  <varray name="positions" >
   <v>       0.00000000       0.66668737       0.16062496 </v>
   <v>       0.00000000       0.66666382       0.05883366 </v>
   <v>       0.50000000       0.16666917       0.16062661 </v>
   <v>       0.50000000       0.16667825       0.05883342 </v>
   <v>       0.00000000       0.33312661       0.37979062 </v>
   <v>       0.00000000       0.33349109       0.27787705 </v>
   <v>       0.50000000       0.83351400       0.37981714 </v>
   <v>       0.50000000       0.83318721       0.27787588 </v>
   <v>       0.00000000       0.00002280       0.10965813 </v>
   <v>       0.50000000       0.50002412       0.10966283 </v>
   <v>       0.00000000       0.99988989       0.32872400 </v>
   <v>       0.50000000       0.49995597       0.32885470 </v>
  </varray>
 </structure>
 <calculation>
  <scstep>
   <time name="dav">    9.40    9.40</time>
   <time name="total">   11.43   11.45</time>
   <energy>
    <i name="alphaZ">     46.37545107 </i>
    <i name="ewald">  19508.30736482 </i>
    <i name="hartreedc"> -22030.35136274 </i>
    <i name="XCdc">   -356.12674311 </i>
    <i name="pawpsdc">   2633.27012201 </i>
    <i name="pawaedc">  -2474.01667568 </i>
    <i name="eentropy">     -0.00730423 </i>
    <i name="bandstr">     81.24292011 </i>
    <i name="atom">   2656.22846841 </i>
    <i name="e_fr_energy">     64.92224066 </i>
    <i name="e_wo_entrp">     64.92954489 </i>
    <i name="e_0_energy">     64.92589277 </i>
   </energy>
  </scstep>
  <scstep>
   <time name="dav">   12.33   12.36</time>
   <time name="total">   12.33   12.36</time>
   <energy>
    <i name="e_fr_energy">   -391.05279494 </i>
    <i name="e_wo_entrp">   -391.05277395 </i>
    <i name="e_0_energy">   -391.05278444 </i>
   </energy>
  </scstep>
  <scstep>
   <time name="dav">   11.32   11.36</time>
   <time name="total">   11.33   11.36</time>
   <energy>
    <i name="e_fr_energy">   -434.59561845 </i>
    <i name="e_wo_entrp">   -434.59561845 </i>
    <i name="e_0_energy">   -434.59561845 </i>
   </energy>
  </scstep>
  <scstep>
   <time name="dav">   12.75   12.77</time>
   <time name="total">   12.75   12.77</time>
   <energy>
    <i name="e_fr_energy">   -436.20660318 </i>
    <i name="e_wo_entrp">   -436.20660318 </i>
    <i name="e_0_energy">   -436.20660318 </i>
   </energy>
  </scstep>
  <scstep>
   <time name="dav">   12.01   12.05</time>
   <time name="total">   12.97   13.01</time>
   <energy>
    <i name="e_fr_energy">   -436.22968422 </i>
    <i name="e_wo_entrp">   -436.22968422 </i>
    <i name="e_0_energy">   -436.22968422 </i>
   </energy>
  </scstep>
  <scstep>
   <time name="dav">   10.27   10.27</time>
   <time name="total">   12.96   12.96</time>
   <energy>
    <i name="e_fr_energy">   -439.75135792 </i>
    <i name="e_wo_entrp">   -439.75135792 </i>
    <i name="e_0_energy">   -439.75135792 </i>
   </energy>
  </scstep>
  <scstep>
   <time name="dav">    9.91    9.94</time>
   <time name="total">   12.57   12.59</time>
   <energy>
    <i name="e_fr_energy">   -439.25263932 </i>
    <i name="e_wo_entrp">   -439.25263932 </i>
    <i name="e_0_energy">   -439.25263932 </i>
   </energy>
  </scstep>
  <scstep>
   <time name="dav">   10.33   10.33</time>
   <time name="total">   13.00   13.00</time>
   <energy>
    <i name="e_fr_energy">   -438.96957552 </i>
    <i name="e_wo_entrp">   -438.96957552 </i>
    <i name="e_0_energy">   -438.96957552 </i>
   </energy>
  </scstep>
  <scstep>
   <time name="dav">   11.34   11.37</time>
   <time name="total">   13.98   14.01</time>
   <energy>
    <i name="e_fr_energy">   -438.93551932 </i>
    <i name="e_wo_entrp">   -438.93551932 </i>
    <i name="e_0_energy">   -438.93551932 </i>
   </energy>
  </scstep>
  <scstep>
   <time name="dav">   11.47   11.47</time>
   <time name="total">   14.10   14.10</time>
   <energy>
    <i name="e_fr_energy">   -438.91653950 </i>
    <i name="e_wo_entrp">   -438.91653950 </i>
    <i name="e_0_energy">   -438.91653950 </i>
   </energy>
  </scstep>
  <scstep>
   <time name="dav">   11.05   11.05</time>
   <time name="total">   13.71   13.71</time>
   <energy>
    <i name="e_fr_energy">   -438.94270114 </i>
    <i name="e_wo_entrp">   -438.94270114 </i>
    <i name="e_0_energy">   -438.94270114 </i>
   </energy>
  </scstep>
  <scstep>
   <time name="dav">   11.05   11.05</time>
   <time name="total">   13.76   13.79</time>
   <energy>
    <i name="e_fr_energy">   -438.91594541 </i>
    <i name="e_wo_entrp">   -438.91594541 </i>
    <i name="e_0_energy">   -438.91594541 </i>
   </energy>
  </scstep>
  <scstep>
   <time name="dav">   11.29   11.29</time>
   <time name="total">   14.01   14.01</time>
   <energy>
    <i name="e_fr_energy">   -438.91257721 </i>
    <i name="e_wo_entrp">   -438.91257721 </i>
    <i name="e_0_energy">   -438.91257721 </i>
   </energy>
  </scstep>
  <scstep>
   <time name="dav">   12.27   12.30</time>
   <time name="total">   14.94   14.98</time>
   <energy>
    <i name="e_fr_energy">   -438.91771618 </i>
    <i name="e_wo_entrp">   -438.91771618 </i>
    <i name="e_0_energy">   -438.91771618 </i>
   </energy>
  </scstep>
  <scstep>
   <time name="dav">   11.72   11.72</time>
   <time name="total">   14.41   14.41</time>
   <energy>
    <i name="e_fr_energy">   -438.91878041 </i>
    <i name="e_wo_entrp">   -438.91878041 </i>
    <i name="e_0_energy">   -438.91878041 </i>
   </energy>
  </scstep>
  <scstep>
   <time name="dav">   11.20   11.22</time>
   <time name="total">   13.85   13.87</time>
   <energy>
    <i name="e_fr_energy">   -438.91654878 </i>
    <i name="e_wo_entrp">   -438.91654878 </i>
    <i name="e_0_energy">   -438.91654878 </i>
   </energy>
  </scstep>
  <scstep>
   <time name="dav">   11.60   11.60</time>
   <time name="total">   14.26   14.26</time>
   <energy>
    <i name="e_fr_energy">   -438.91516174 </i>
    <i name="e_wo_entrp">   -438.91516174 </i>
    <i name="e_0_energy">   -438.91516174 </i>
   </energy>
  </scstep>
  <scstep>
   <time name="dav">   11.72   11.76</time>
   <time name="total">   14.36   14.40</time>
   <energy>
    <i name="e_fr_energy">   -438.91450837 </i>
    <i name="e_wo_entrp">   -438.91450837 </i>
    <i name="e_0_energy">   -438.91450837 </i>
   </energy>
  </scstep>
  <scstep>
   <time name="dav">   11.56   11.56</time>
   <time name="total">   14.19   14.19</time>
   <energy>
    <i name="e_fr_energy">   -438.91426243 </i>
    <i name="e_wo_entrp">   -438.91426243 </i>
    <i name="e_0_energy">   -438.91426243 </i>
   </energy>
  </scstep>
  <scstep>
   <time name="dav">   11.33   11.36</time>
   <time name="total">   13.96   13.99</time>
   <energy>
    <i name="e_fr_energy">   -438.91420591 </i>
    <i name="e_wo_entrp">   -438.91420591 </i>
    <i name="e_0_energy">   -438.91420591 </i>
   </energy>
  </scstep>
  <scstep>
   <time name="dav">   11.06   11.06</time>
   <time name="total">   13.70   13.69</time>
   <energy>
    <i name="e_fr_energy">   -438.91440036 </i>
    <i name="e_wo_entrp">   -438.91440036 </i>
    <i name="e_0_energy">   -438.91440036 </i>
   </energy>
  </scstep>
  <scstep>
   <time name="dav">   11.88   11.91</time>
   <time name="total">   14.53   14.56</time>
   <energy>
    <i name="e_fr_energy">   -438.91452569 </i>
    <i name="e_wo_entrp">   -438.91452569 </i>
    <i name="e_0_energy">   -438.91452569 </i>
   </energy>
  </scstep>
  <scstep>
   <time name="dav">   10.13   10.13</time>
   <time name="total">   12.73   12.74</time>
   <energy>
    <i name="e_fr_energy">   -438.91460482 </i>
    <i name="e_wo_entrp">   -438.91460482 </i>
    <i name="e_0_energy">   -438.91460482 </i>
   </energy>
  </scstep>
  <scstep>
   <time name="dav">    8.72    8.72</time>
   <time name="total">   11.35   11.35</time>
   <energy>
    <i name="e_fr_energy">   -438.91462688 </i>
    <i name="e_wo_entrp">   -438.91462688 </i>
    <i name="e_0_energy">   -438.91462688 </i>
   </energy>
  </scstep>
  <scstep>
   <time name="dav">    8.78    8.80</time>
   <time name="total">   11.39   11.42</time>
   <energy>
    <i name="e_fr_energy">   -438.91459558 </i>
    <i name="e_wo_entrp">   -438.91459558 </i>
    <i name="e_0_energy">   -438.91459558 </i>
   </energy>
  </scstep>
  <scstep>
   <time name="dav">    9.58    9.57</time>
   <time name="total">   12.18   12.17</time>
   <energy>
    <i name="e_fr_energy">   -438.91456050 </i>
    <i name="e_wo_entrp">   -438.91456050 </i>
    <i name="e_0_energy">   -438.91456050 </i>
   </energy>
  </scstep>
  <scstep>
   <time name="dav">   11.04   11.09</time>
   <time name="total">   12.69   12.74</time>
   <energy>
    <i name="alphaZ">     46.37545107 </i>
    <i name="ewald">  19508.30736482 </i>
    <i name="hartreedc"> -22066.92837679 </i>
    <i name="XCdc">   -372.89857645 </i>
    <i name="pawpsdc">   5231.07892489 </i>
    <i name="pawaedc">  -5081.18008256 </i>
    <i name="eentropy">     -0.00000000 </i>
    <i name="bandstr">   -359.89773222 </i>
    <i name="atom">   2656.22846841 </i>
    <i name="e_fr_energy">   -438.91455883 </i>
    <i name="e_wo_entrp">   -438.91455883 </i>
    <i name="e_0_energy">   -438.91455883 </i>
   </energy>
  </scstep>
  <structure>
   <crystal>
    <varray name="basis" >
     <v>       3.55100000       0.00000000       0.00000000 </v>
     <v>       0.00000000       6.14900000       0.00000000 </v>
     <v>       0.00000000       0.00000000      35.00000000 </v>
    </varray>
    <i name="volume">    764.22846500 </i>
    <varray name="rec_basis" >
     <v>       0.28161081       0.00000000       0.00000000 </v>
     <v>       0.00000000       0.16262807       0.00000000 </v>
     <v>       0.00000000       0.00000000       0.02857143 </v>
    </varray>
   </crystal>
   <varray name="positions" >
    <v>       0.00000000       0.66668737       0.16062496 </v>
    <v>       0.00000000       0.66666382       0.05883366 </v>
    <v>       0.50000000       0.16666917       0.16062661 </v>
    <v>       0.50000000       0.16667825       0.05883342 </v>
    <v>       0.00000000       0.33312661       0.37979062 </v>
    <v>       0.00000000       0.33349109       0.27787705 </v>
    <v>       0.50000000       0.83351400       0.37981714 </v>
    <v>       0.50000000       0.83318721       0.27787588 </v>
    <v>       0.00000000       0.00002280       0.10965813 </v>
    <v>       0.50000000       0.50002412       0.10966283 </v>
    <v>       0.00000000       0.99988989       0.32872400 </v>
    <v>       0.50000000       0.49995597       0.32885470 </v>
   </varray>
  </structure>
  <varray name="forces" >
   <v>       0.00000098       0.00011958       0.02187636 </v>
   <v>       0.00000081       0.00150038      -0.00255706 </v>
   <v>       0.00000056       0.00021032       0.02097230 </v>
   <v>       0.00000017       0.00146298      -0.00288216 </v>
   <v>      -0.00000001      -0.00264381      -0.06527594 </v>
   <v>      -0.00000082      -0.00168568      -0.02790461 </v>
   <v>      -0.00000030      -0.00278087      -0.08772091 </v>
   <v>      -0.00000028      -0.00719179      -0.04403120 </v>
   <v>       0.00000065       0.00045108       0.05508721 </v>
   <v>       0.00000150       0.00003396       0.05313928 </v>
   <v>      -0.00000145       0.00549398       0.07394943 </v>
   <v>      -0.00000183       0.00502988       0.00534730 </v>
  </varray>
  <varray name="stress" >
   <v>     -10.28859834      -0.00002026      -0.00000125 </v>
   <v>      -0.00002002     -10.25521407       0.00348608 </v>
   <v>      -0.00000133       0.00348212      -4.74470278 </v>
  </varray>
  <energy>
   <i name="e_fr_energy">   -438.91455883 </i>
   <i name="e_wo_entrp">   -438.91455883 </i>
   <i name="e_0_energy">     -0.00000000 </i>
  </energy>
  <time name="totalsc">  383.36  383.99</time>
  <eigenvalues>
   <array>
    <dimension dim="1">band</dimension>
    <dimension dim="2">kpoint</dimension>
    <dimension dim="3">spin</dimension>
    <field>eigene</field>
    <field>occ</field>
    <set>
     <set comment="spin 1">
      <set comment="kpoint 1">
       <r>  -13.5751    1.0000 </r>
       <r>  -13.5316    1.0000 </r>
       <r>  -12.5768    1.0000 </r>
       <r>  -12.5036    1.0000 </r>
       <r>  -11.5825    1.0000 </r>
       <r>  -11.5651    1.0000 </r>
       <r>  -11.1866    1.0000 </r>
       <r>  -11.1622    1.0000 </r>
       <r>   -6.0936    1.0000 </r>
       <r>   -6.0910    1.0000 </r>
       <r>   -5.8745    1.0000 </r>
       <r>   -5.5931    1.0000 </r>
       <r>   -5.2066    1.0000 </r>
       <r>   -5.1270    1.0000 </r>
       <r>   -4.0739    1.0000 </r>
       <r>   -4.0303    1.0000 </r>
       <r>   -2.9401    1.0000 </r>
       <r>   -2.9267    1.0000 </r>
       <r>   -2.6302    1.0000 </r>
       <r>   -2.3223    1.0000 </r>
       <r>   -2.3178    1.0000 </r>
       <r>   -2.3097    1.0000 </r>
       <r>   -2.2686    1.0000 </r>
       <r>   -2.2606    1.0000 </r>
       <r>   -2.0385    1.0000 </r>
       <r>   -1.9663    1.0000 </r>
       <r>   -1.4935    1.0000 </r>
       <r>   -1.4896    1.0000 </r>
       <r>   -1.4613    1.0000 </r>
       <r>   -1.4282    1.0000 </r>
       <r>   -1.4133    1.0000 </r>
       <r>   -1.3458    1.0000 </r>
       <r>   -1.0765    1.0000 </r>
       <r>   -0.8412    1.0000 </r>
       <r>   -0.8191    1.0000 </r>
       <r>   -0.7183    1.0000 </r>
       <r>    1.0240    0.0000 </r>
       <r>    1.0350    0.0000 </r>
       <r>    1.3582    0.0000 </r>
       <r>    1.3985    0.0000 </r>
       <r>    2.6995    0.0000 </r>
       <r>    2.7333    0.0000 </r>
       <r>    2.7635    0.0000 </r>
       <r>    2.7897    0.0000 </r>
       <r>    2.8262    0.0000 </r>
       <r>    2.9930    0.0000 </r>
       <r>    3.0049    0.0000 </r>
       <r>    3.0572    0.0000 </r>
      </set>
      <set comment="kpoint 2">
       <r>  -13.5227    1.0000 </r>
       <r>  -13.4794    1.0000 </r>
       <r>  -12.5388    1.0000 </r>
       <r>  -12.4664    1.0000 </r>
       <r>  -11.5556    1.0000 </r>
       <r>  -11.5387    1.0000 </r>
       <r>  -11.1650    1.0000 </r>
       <r>  -11.1415    1.0000 </r>
       <r>   -6.0313    1.0000 </r>
       <r>   -6.0291    1.0000 </r>
       <r>   -5.8165    1.0000 </r>
       <r>   -5.5358    1.0000 </r>
       <r>   -5.1913    1.0000 </r>
       <r>   -5.1169    1.0000 </r>
       <r>   -4.0550    1.0000 </r>
       <r>   -4.0085    1.0000 </r>
       <r>   -3.0345    1.0000 </r>
       <r>   -3.0166    1.0000 </r>
       <r>   -2.7026    1.0000 </r>
       <r>   -2.4397    1.0000 </r>
       <r>   -2.4317    1.0000 </r>
       <r>   -2.2950    1.0000 </r>
       <r>   -2.2229    1.0000 </r>
       <r>   -2.2149    1.0000 </r>
       <r>   -2.1446    1.0000 </r>
       <r>   -2.0328    1.0000 </r>
       <r>   -1.7376    1.0000 </r>
       <r>   -1.7146    1.0000 </r>
       <r>   -1.5649    1.0000 </r>
       <r>   -1.5594    1.0000 </r>
       <r>   -1.4445    1.0000 </r>
       <r>   -1.3016    1.0000 </r>
       <r>   -1.0698    1.0000 </r>
       <r>   -0.7965    1.0000 </r>
       <r>   -0.7615    1.0000 </r>
       <r>   -0.7274    1.0000 </r>
       <r>    1.0385    0.0000 </r>
       <r>    1.0625    0.0000 </r>
       <r>    1.3798    0.0000 </r>
       <r>    1.4288    0.0000 </r>
       <r>    2.4727    0.0000 </r>
       <r>    2.5039    0.0000 </r>
       <r>    2.6705    0.0000 </r>
       <r>    2.7207    0.0000 </r>
       <r>    2.7957    0.0000 </r>
       <r>    2.8314    0.0000 </r>
       <r>    2.8724    0.0000 </r>
       <r>    2.8936    0.0000 </r>
      </set>
      <set comment="kpoint 3">
       <r>  -13.4192    1.0000 </r>
       <r>  -13.3761    1.0000 </r>
       <r>  -12.4639    1.0000 </r>
       <r>  -12.3930    1.0000 </r>
       <r>  -11.5051    1.0000 </r>
       <r>  -11.4892    1.0000 </r>
       <r>  -11.1247    1.0000 </r>
       <r>  -11.1030    1.0000 </r>
       <r>   -5.9104    1.0000 </r>
       <r>   -5.9058    1.0000 </r>
       <r>   -5.7037    1.0000 </r>
       <r>   -5.4246    1.0000 </r>
       <r>   -5.1665    1.0000 </r>
       <r>   -5.1026    1.0000 </r>
       <r>   -4.0232    1.0000 </r>
       <r>   -3.9707    1.0000 </r>
       <r>   -3.1863    1.0000 </r>
       <r>   -3.1563    1.0000 </r>
       <r>   -2.8313    1.0000 </r>
       <r>   -2.6673    1.0000 </r>
       <r>   -2.6591    1.0000 </r>
       <r>   -2.3839    1.0000 </r>
       <r>   -2.2851    1.0000 </r>
       <r>   -2.2573    1.0000 </r>
       <r>   -2.2177    1.0000 </r>
       <r>   -2.1374    1.0000 </r>
       <r>   -2.1294    1.0000 </r>
       <r>   -2.0346    1.0000 </r>
       <r>   -1.7191    1.0000 </r>
       <r>   -1.7123    1.0000 </r>
       <r>   -1.4202    1.0000 </r>
       <r>   -1.1964    1.0000 </r>
       <r>   -1.0690    1.0000 </r>
       <r>   -0.7653    1.0000 </r>
       <r>   -0.7571    1.0000 </r>
       <r>   -0.7125    1.0000 </r>
       <r>    1.0251    0.0000 </r>
       <r>    1.0692    0.0000 </r>
       <r>    1.4406    0.0000 </r>
       <r>    1.5381    0.0000 </r>
       <r>    2.1395    0.0000 </r>
       <r>    2.1702    0.0000 </r>
       <r>    2.2205    0.0000 </r>
       <r>    2.3226    0.0000 </r>
       <r>    2.4129    0.0000 </r>
       <r>    2.4893    0.0000 </r>
       <r>    2.6980    0.0000 </r>
       <r>    2.7339    0.0000 </r>
      </set>
      <set comment="kpoint 4">
       <r>  -13.2671    1.0000 </r>
       <r>  -13.2245    1.0000 </r>
       <r>  -12.3541    1.0000 </r>
       <r>  -12.2856    1.0000 </r>
       <r>  -11.4378    1.0000 </r>
       <r>  -11.4234    1.0000 </r>
       <r>  -11.0715    1.0000 </r>
       <r>  -11.0525    1.0000 </r>
       <r>   -5.7359    1.0000 </r>
       <r>   -5.7258    1.0000 </r>
       <r>   -5.5430    1.0000 </r>
       <r>   -5.2674    1.0000 </r>
       <r>   -5.1432    1.0000 </r>
       <r>   -5.0950    1.0000 </r>
       <r>   -3.9938    1.0000 </r>
       <r>   -3.9316    1.0000 </r>
       <r>   -3.3496    1.0000 </r>
       <r>   -3.3018    1.0000 </r>
       <r>   -3.0048    1.0000 </r>
       <r>   -2.9744    1.0000 </r>
       <r>   -2.9592    1.0000 </r>
       <r>   -2.8542    1.0000 </r>
       <r>   -2.7971    1.0000 </r>
       <r>   -2.6390    1.0000 </r>
       <r>   -2.2608    1.0000 </r>
       <r>   -2.0755    1.0000 </r>
       <r>   -2.0238    1.0000 </r>
       <r>   -2.0155    1.0000 </r>
       <r>   -1.9698    1.0000 </r>
       <r>   -1.9582    1.0000 </r>
       <r>   -1.4019    1.0000 </r>
       <r>   -1.1465    1.0000 </r>
       <r>   -1.0921    1.0000 </r>
       <r>   -0.8230    1.0000 </r>
       <r>   -0.7163    1.0000 </r>
       <r>   -0.6691    1.0000 </r>
       <r>    0.9599    0.0000 </r>
       <r>    1.0048    0.0000 </r>
       <r>    1.5800    0.0000 </r>
       <r>    1.7118    0.0000 </r>
       <r>    1.7491    0.0000 </r>
       <r>    1.8437    0.0000 </r>
       <r>    1.8620    0.0000 </r>
       <r>    1.9682    0.0000 </r>
       <r>    2.0377    0.0000 </r>
       <r>    2.0956    0.0000 </r>
       <r>    2.3831    0.0000 </r>
       <r>    2.4220    0.0000 </r>
      </set>
      <set comment="kpoint 5">
       <r>  -13.0707    1.0000 </r>
       <r>  -13.0289    1.0000 </r>
       <r>  -12.2127    1.0000 </r>
       <r>  -12.1474    1.0000 </r>
       <r>  -11.3643    1.0000 </r>
       <r>  -11.3524    1.0000 </r>
       <r>  -11.0141    1.0000 </r>
       <r>  -10.9991    1.0000 </r>
       <r>   -5.5181    1.0000 </r>
       <r>   -5.4995    1.0000 </r>
       <r>   -5.3468    1.0000 </r>
       <r>   -5.1345    1.0000 </r>
       <r>   -5.1050    1.0000 </r>
       <r>   -5.0783    1.0000 </r>
       <r>   -4.0104    1.0000 </r>
       <r>   -3.9384    1.0000 </r>
       <r>   -3.4840    1.0000 </r>
       <r>   -3.4174    1.0000 </r>
       <r>   -3.3839    1.0000 </r>
       <r>   -3.3368    1.0000 </r>
       <r>   -3.3298    1.0000 </r>
       <r>   -3.3154    1.0000 </r>
       <r>   -3.1710    1.0000 </r>
       <r>   -2.8999    1.0000 </r>
       <r>   -2.3107    1.0000 </r>
       <r>   -2.2886    1.0000 </r>
       <r>   -2.2778    1.0000 </r>
       <r>   -2.1455    1.0000 </r>
       <r>   -1.9130    1.0000 </r>
       <r>   -1.9023    1.0000 </r>
       <r>   -1.4018    1.0000 </r>
       <r>   -1.1643    1.0000 </r>
       <r>   -1.1450    1.0000 </r>
       <r>   -0.9249    1.0000 </r>
       <r>   -0.6403    1.0000 </r>
       <r>   -0.6087    1.0000 </r>
       <r>    0.8563    0.0000 </r>
       <r>    0.8902    0.0000 </r>
       <r>    1.3815    0.0000 </r>
       <r>    1.5497    0.0000 </r>
       <r>    1.6458    0.0000 </r>
       <r>    1.7039    0.0000 </r>
       <r>    1.7404    0.0000 </r>
       <r>    1.7758    0.0000 </r>
       <r>    1.8718    0.0000 </r>
       <r>    1.9643    0.0000 </r>
       <r>    2.0307    0.0000 </r>
       <r>    2.0827    0.0000 </r>
      </set>
      <set comment="kpoint 6">
       <r>  -12.8362    1.0000 </r>
       <r>  -12.7956    1.0000 </r>
       <r>  -12.0447    1.0000 </r>
       <r>  -11.9835    1.0000 </r>
       <r>  -11.3002    1.0000 </r>
       <r>  -11.2916    1.0000 </r>
       <r>  -10.9648    1.0000 </r>
       <r>  -10.9548    1.0000 </r>
       <r>   -5.2853    1.0000 </r>
       <r>   -5.2545    1.0000 </r>
       <r>   -5.1456    1.0000 </r>
       <r>   -5.1382    1.0000 </r>
       <r>   -5.1331    1.0000 </r>
       <r>   -4.8859    1.0000 </r>
       <r>   -4.1897    1.0000 </r>
       <r>   -4.1485    1.0000 </r>
       <r>   -3.7015    1.0000 </r>
       <r>   -3.6943    1.0000 </r>
       <r>   -3.6296    1.0000 </r>
       <r>   -3.5993    1.0000 </r>
       <r>   -3.5608    1.0000 </r>
       <r>   -3.4799    1.0000 </r>
       <r>   -3.3764    1.0000 </r>
       <r>   -3.1813    1.0000 </r>
       <r>   -2.6953    1.0000 </r>
       <r>   -2.6515    1.0000 </r>
       <r>   -2.3026    1.0000 </r>
       <r>   -2.2269    1.0000 </r>
       <r>   -1.8877    1.0000 </r>
       <r>   -1.8664    1.0000 </r>
       <r>   -1.4215    1.0000 </r>
       <r>   -1.2064    1.0000 </r>
       <r>   -1.1920    1.0000 </r>
       <r>   -1.0412    1.0000 </r>
       <r>   -0.5494    1.0000 </r>
       <r>   -0.5358    1.0000 </r>
       <r>    0.7466    0.0000 </r>
       <r>    0.7681    0.0000 </r>
       <r>    1.1087    0.0000 </r>
       <r>    1.2993    0.0000 </r>
       <r>    1.5501    0.0000 </r>
       <r>    1.5955    0.0000 </r>
       <r>    1.6112    0.0000 </r>
       <r>    1.6785    0.0000 </r>
       <r>    1.7172    0.0000 </r>
       <r>    1.8274    0.0000 </r>
       <r>    2.0177    0.0000 </r>
       <r>    2.1313    0.0000 </r>
      </set>
      <set comment="kpoint 7">
       <r>  -12.5724    1.0000 </r>
       <r>  -12.5337    1.0000 </r>
       <r>  -11.8569    1.0000 </r>
       <r>  -11.8008    1.0000 </r>
       <r>  -11.2653    1.0000 </r>
       <r>  -11.2597    1.0000 </r>
       <r>  -10.9381    1.0000 </r>
       <r>  -10.9332    1.0000 </r>
       <r>   -5.1638    1.0000 </r>
       <r>   -5.1592    1.0000 </r>
       <r>   -5.1384    1.0000 </r>
       <r>   -5.0991    1.0000 </r>
       <r>   -4.9699    1.0000 </r>
       <r>   -4.7638    1.0000 </r>
       <r>   -4.3912    1.0000 </r>
       <r>   -4.3723    1.0000 </r>
       <r>   -4.0127    1.0000 </r>
       <r>   -3.9780    1.0000 </r>
       <r>   -3.6492    1.0000 </r>
       <r>   -3.6442    1.0000 </r>
       <r>   -3.6319    1.0000 </r>
       <r>   -3.5837    1.0000 </r>
       <r>   -3.5214    1.0000 </r>
       <r>   -3.4972    1.0000 </r>
       <r>   -3.0403    1.0000 </r>
       <r>   -2.9588    1.0000 </r>
       <r>   -2.3157    1.0000 </r>
       <r>   -2.2810    1.0000 </r>
       <r>   -2.0332    1.0000 </r>
       <r>   -2.0024    1.0000 </r>
       <r>   -1.4871    1.0000 </r>
       <r>   -1.2410    1.0000 </r>
       <r>   -1.1472    1.0000 </r>
       <r>   -1.1099    1.0000 </r>
       <r>   -0.4902    1.0000 </r>
       <r>   -0.4871    1.0000 </r>
       <r>    0.6826    0.0000 </r>
       <r>    0.6959    0.0000 </r>
       <r>    0.9162    0.0000 </r>
       <r>    1.1011    0.0000 </r>
       <r>    1.4553    0.0000 </r>
       <r>    1.5399    0.0000 </r>
       <r>    1.5519    0.0000 </r>
       <r>    1.5616    0.0000 </r>
       <r>    1.5923    0.0000 </r>
       <r>    1.8030    0.0000 </r>
       <r>    2.1479    0.0000 </r>
       <r>    2.2129    0.0000 </r>
      </set>
      <set comment="kpoint 8">
       <r>  -12.2914    1.0000 </r>
       <r>  -12.2554    1.0000 </r>
       <r>  -11.6585    1.0000 </r>
       <r>  -11.6085    1.0000 </r>
       <r>  -11.2828    1.0000 </r>
       <r>  -11.2755    1.0000 </r>
       <r>  -10.9518    1.0000 </r>
       <r>  -10.9440    1.0000 </r>
       <r>   -5.2250    1.0000 </r>
       <r>   -5.1908    1.0000 </r>
       <r>   -5.1551    1.0000 </r>
       <r>   -5.1456    1.0000 </r>
       <r>   -4.9564    1.0000 </r>
       <r>   -4.8455    1.0000 </r>
       <r>   -4.2752    1.0000 </r>
       <r>   -4.2460    1.0000 </r>
       <r>   -4.1544    1.0000 </r>
       <r>   -4.0525    1.0000 </r>
       <r>   -3.9564    1.0000 </r>
       <r>   -3.9038    1.0000 </r>
       <r>   -3.6416    1.0000 </r>
       <r>   -3.6220    1.0000 </r>
       <r>   -3.5716    1.0000 </r>
       <r>   -3.4879    1.0000 </r>
       <r>   -3.2715    1.0000 </r>
       <r>   -3.1669    1.0000 </r>
       <r>   -2.3119    1.0000 </r>
       <r>   -2.3106    1.0000 </r>
       <r>   -2.2808    1.0000 </r>
       <r>   -2.2522    1.0000 </r>
       <r>   -1.6140    1.0000 </r>
       <r>   -1.3930    1.0000 </r>
       <r>   -1.0480    1.0000 </r>
       <r>   -1.0316    1.0000 </r>
       <r>   -0.5213    1.0000 </r>
       <r>   -0.5113    1.0000 </r>
       <r>    0.7154    0.0000 </r>
       <r>    0.7326    0.0000 </r>
       <r>    0.8104    0.0000 </r>
       <r>    1.0068    0.0000 </r>
       <r>    1.3535    0.0000 </r>
       <r>    1.4387    0.0000 </r>
       <r>    1.5750    0.0000 </r>
       <r>    1.5871    0.0000 </r>
       <r>    1.6445    0.0000 </r>
       <r>    1.8514    0.0000 </r>
       <r>    2.0783    0.0000 </r>
       <r>    2.1736    0.0000 </r>
      </set>
      <set comment="kpoint 9">
       <r>  -12.0095    1.0000 </r>
       <r>  -11.9775    1.0000 </r>
       <r>  -11.4610    1.0000 </r>
       <r>  -11.4183    1.0000 </r>
       <r>  -11.3690    1.0000 </r>
       <r>  -11.3555    1.0000 </r>
       <r>  -11.0143    1.0000 </r>
       <r>  -10.9981    1.0000 </r>
       <r>   -5.3531    1.0000 </r>
       <r>   -5.3231    1.0000 </r>
       <r>   -5.1158    1.0000 </r>
       <r>   -5.0814    1.0000 </r>
       <r>   -5.0679    1.0000 </r>
       <r>   -5.0632    1.0000 </r>
       <r>   -4.3499    1.0000 </r>
       <r>   -4.3199    1.0000 </r>
       <r>   -4.0545    1.0000 </r>
       <r>   -4.0173    1.0000 </r>
       <r>   -3.9417    1.0000 </r>
       <r>   -3.9249    1.0000 </r>
       <r>   -3.6119    1.0000 </r>
       <r>   -3.5750    1.0000 </r>
       <r>   -3.5418    1.0000 </r>
       <r>   -3.4675    1.0000 </r>
       <r>   -3.4040    1.0000 </r>
       <r>   -3.3011    1.0000 </r>
       <r>   -2.6566    1.0000 </r>
       <r>   -2.6312    1.0000 </r>
       <r>   -2.2500    1.0000 </r>
       <r>   -2.1489    1.0000 </r>
       <r>   -1.7783    1.0000 </r>
       <r>   -1.5879    1.0000 </r>
       <r>   -0.9668    1.0000 </r>
       <r>   -0.9332    1.0000 </r>
       <r>   -0.6297    1.0000 </r>
       <r>   -0.6158    1.0000 </r>
       <r>    0.8307    0.0000 </r>
       <r>    0.8325    0.0000 </r>
       <r>    0.8719    0.0000 </r>
       <r>    1.0720    0.0000 </r>
       <r>    1.3092    0.0000 </r>
       <r>    1.3547    0.0000 </r>
       <r>    1.6135    0.0000 </r>
       <r>    1.6545    0.0000 </r>
       <r>    1.7125    0.0000 </r>
       <r>    1.8412    0.0000 </r>
       <r>    1.8807    0.0000 </r>
       <r>    1.9832    0.0000 </r>
      </set>
      <set comment="kpoint 10">
       <r>  -11.7472    1.0000 </r>
       <r>  -11.7203    1.0000 </r>
       <r>  -11.5271    1.0000 </r>
       <r>  -11.5066    1.0000 </r>
       <r>  -11.2785    1.0000 </r>
       <r>  -11.2440    1.0000 </r>
       <r>  -11.1254    1.0000 </r>
       <r>  -11.0999    1.0000 </r>
       <r>   -5.3796    1.0000 </r>
       <r>   -5.3505    1.0000 </r>
       <r>   -5.2888    1.0000 </r>
       <r>   -5.2550    1.0000 </r>
       <r>   -4.9204    1.0000 </r>
       <r>   -4.9042    1.0000 </r>
       <r>   -4.6700    1.0000 </r>
       <r>   -4.6505    1.0000 </r>
       <r>   -3.9442    1.0000 </r>
       <r>   -3.8903    1.0000 </r>
       <r>   -3.8227    1.0000 </r>
       <r>   -3.7829    1.0000 </r>
       <r>   -3.5243    1.0000 </r>
       <r>   -3.4795    1.0000 </r>
       <r>   -3.4417    1.0000 </r>
       <r>   -3.4011    1.0000 </r>
       <r>   -3.3863    1.0000 </r>
       <r>   -3.3635    1.0000 </r>
       <r>   -3.0341    1.0000 </r>
       <r>   -3.0117    1.0000 </r>
       <r>   -2.1241    1.0000 </r>
       <r>   -1.9891    1.0000 </r>
       <r>   -1.9572    1.0000 </r>
       <r>   -1.7941    1.0000 </r>
       <r>   -0.8807    1.0000 </r>
       <r>   -0.8456    1.0000 </r>
       <r>   -0.7650    1.0000 </r>
       <r>   -0.7406    1.0000 </r>
       <r>    0.9426    0.0000 </r>
       <r>    0.9471    0.0000 </r>
       <r>    1.0472    0.0000 </r>
       <r>    1.1805    0.0000 </r>
       <r>    1.3142    0.0000 </r>
       <r>    1.3493    0.0000 </r>
       <r>    1.4729    0.0000 </r>
       <r>    1.6113    0.0000 </r>
       <r>    1.7395    0.0000 </r>
       <r>    1.7462    0.0000 </r>
       <r>    1.8119    0.0000 </r>
       <r>    1.8597    0.0000 </r>
      </set>
      <set comment="kpoint 11">
       <r>  -11.7472    1.0000 </r>
       <r>  -11.7203    1.0000 </r>
       <r>  -11.5271    1.0000 </r>
       <r>  -11.5066    1.0000 </r>
       <r>  -11.2785    1.0000 </r>
       <r>  -11.2440    1.0000 </r>
       <r>  -11.1254    1.0000 </r>
       <r>  -11.0999    1.0000 </r>
       <r>   -5.3796    1.0000 </r>
       <r>   -5.3505    1.0000 </r>
       <r>   -5.2888    1.0000 </r>
       <r>   -5.2550    1.0000 </r>
       <r>   -4.9204    1.0000 </r>
       <r>   -4.9042    1.0000 </r>
       <r>   -4.6700    1.0000 </r>
       <r>   -4.6505    1.0000 </r>
       <r>   -3.9442    1.0000 </r>
       <r>   -3.8903    1.0000 </r>
       <r>   -3.8227    1.0000 </r>
       <r>   -3.7829    1.0000 </r>
       <r>   -3.5243    1.0000 </r>
       <r>   -3.4795    1.0000 </r>
       <r>   -3.4417    1.0000 </r>
       <r>   -3.4011    1.0000 </r>
       <r>   -3.3863    1.0000 </r>
       <r>   -3.3635    1.0000 </r>
       <r>   -3.0341    1.0000 </r>
       <r>   -3.0117    1.0000 </r>
       <r>   -2.1241    1.0000 </r>
       <r>   -1.9891    1.0000 </r>
       <r>   -1.9572    1.0000 </r>
       <r>   -1.7941    1.0000 </r>
       <r>   -0.8807    1.0000 </r>
       <r>   -0.8456    1.0000 </r>
       <r>   -0.7650    1.0000 </r>
       <r>   -0.7406    1.0000 </r>
       <r>    0.9426    0.0000 </r>
       <r>    0.9471    0.0000 </r>
       <r>    1.0472    0.0000 </r>
       <r>    1.1805    0.0000 </r>
       <r>    1.3142    0.0000 </r>
       <r>    1.3493    0.0000 </r>
       <r>    1.4729    0.0000 </r>
       <r>    1.6113    0.0000 </r>
       <r>    1.7395    0.0000 </r>
       <r>    1.7462    0.0000 </r>
       <r>    1.8119    0.0000 </r>
       <r>    1.8597    0.0000 </r>
      </set>
      <set comment="kpoint 12">
       <r>  -12.0095    1.0000 </r>
       <r>  -11.9775    1.0000 </r>
       <r>  -11.4610    1.0000 </r>
       <r>  -11.4183    1.0000 </r>
       <r>  -11.3690    1.0000 </r>
       <r>  -11.3555    1.0000 </r>
       <r>  -11.0143    1.0000 </r>
       <r>  -10.9981    1.0000 </r>
       <r>   -5.3531    1.0000 </r>
       <r>   -5.3231    1.0000 </r>
       <r>   -5.1158    1.0000 </r>
       <r>   -5.0814    1.0000 </r>
       <r>   -5.0679    1.0000 </r>
       <r>   -5.0632    1.0000 </r>
       <r>   -4.3499    1.0000 </r>
       <r>   -4.3199    1.0000 </r>
       <r>   -4.0545    1.0000 </r>
       <r>   -4.0173    1.0000 </r>
       <r>   -3.9417    1.0000 </r>
       <r>   -3.9249    1.0000 </r>
       <r>   -3.6119    1.0000 </r>
       <r>   -3.5750    1.0000 </r>
       <r>   -3.5418    1.0000 </r>
       <r>   -3.4675    1.0000 </r>
       <r>   -3.4040    1.0000 </r>
       <r>   -3.3011    1.0000 </r>
       <r>   -2.6566    1.0000 </r>
       <r>   -2.6312    1.0000 </r>
       <r>   -2.2500    1.0000 </r>
       <r>   -2.1489    1.0000 </r>
       <r>   -1.7783    1.0000 </r>
       <r>   -1.5879    1.0000 </r>
       <r>   -0.9668    1.0000 </r>
       <r>   -0.9332    1.0000 </r>
       <r>   -0.6297    1.0000 </r>
       <r>   -0.6158    1.0000 </r>
       <r>    0.8307    0.0000 </r>
       <r>    0.8325    0.0000 </r>
       <r>    0.8719    0.0000 </r>
       <r>    1.0720    0.0000 </r>
       <r>    1.3092    0.0000 </r>
       <r>    1.3547    0.0000 </r>
       <r>    1.6135    0.0000 </r>
       <r>    1.6545    0.0000 </r>
       <r>    1.7125    0.0000 </r>
       <r>    1.8412    0.0000 </r>
       <r>    1.8807    0.0000 </r>
       <r>    1.9832    0.0000 </r>
      </set>
      <set comment="kpoint 13">
       <r>  -12.2914    1.0000 </r>
       <r>  -12.2554    1.0000 </r>
       <r>  -11.6585    1.0000 </r>
       <r>  -11.6085    1.0000 </r>
       <r>  -11.2828    1.0000 </r>
       <r>  -11.2755    1.0000 </r>
       <r>  -10.9518    1.0000 </r>
       <r>  -10.9440    1.0000 </r>
       <r>   -5.2250    1.0000 </r>
       <r>   -5.1908    1.0000 </r>
       <r>   -5.1551    1.0000 </r>
       <r>   -5.1456    1.0000 </r>
       <r>   -4.9564    1.0000 </r>
       <r>   -4.8455    1.0000 </r>
       <r>   -4.2752    1.0000 </r>
       <r>   -4.2460    1.0000 </r>
       <r>   -4.1544    1.0000 </r>
       <r>   -4.0525    1.0000 </r>
       <r>   -3.9564    1.0000 </r>
       <r>   -3.9038    1.0000 </r>
       <r>   -3.6416    1.0000 </r>
       <r>   -3.6220    1.0000 </r>
       <r>   -3.5716    1.0000 </r>
       <r>   -3.4879    1.0000 </r>
       <r>   -3.2715    1.0000 </r>
       <r>   -3.1669    1.0000 </r>
       <r>   -2.3119    1.0000 </r>
       <r>   -2.3106    1.0000 </r>
       <r>   -2.2808    1.0000 </r>
       <r>   -2.2522    1.0000 </r>
       <r>   -1.6140    1.0000 </r>
       <r>   -1.3930    1.0000 </r>
       <r>   -1.0480    1.0000 </r>
       <r>   -1.0316    1.0000 </r>
       <r>   -0.5213    1.0000 </r>
       <r>   -0.5113    1.0000 </r>
       <r>    0.7154    0.0000 </r>
       <r>    0.7326    0.0000 </r>
       <r>    0.8104    0.0000 </r>
       <r>    1.0068    0.0000 </r>
       <r>    1.3535    0.0000 </r>
       <r>    1.4387    0.0000 </r>
       <r>    1.5750    0.0000 </r>
       <r>    1.5871    0.0000 </r>
       <r>    1.6445    0.0000 </r>
       <r>    1.8514    0.0000 </r>
       <r>    2.0783    0.0000 </r>
       <r>    2.1736    0.0000 </r>
      </set>
      <set comment="kpoint 14">
       <r>  -12.5724    1.0000 </r>
       <r>  -12.5337    1.0000 </r>
       <r>  -11.8569    1.0000 </r>
       <r>  -11.8008    1.0000 </r>
       <r>  -11.2653    1.0000 </r>
       <r>  -11.2597    1.0000 </r>
       <r>  -10.9381    1.0000 </r>
       <r>  -10.9332    1.0000 </r>
       <r>   -5.1638    1.0000 </r>
       <r>   -5.1592    1.0000 </r>
       <r>   -5.1384    1.0000 </r>
       <r>   -5.0991    1.0000 </r>
       <r>   -4.9699    1.0000 </r>
       <r>   -4.7638    1.0000 </r>
       <r>   -4.3912    1.0000 </r>
       <r>   -4.3723    1.0000 </r>
       <r>   -4.0127    1.0000 </r>
       <r>   -3.9780    1.0000 </r>
       <r>   -3.6492    1.0000 </r>
       <r>   -3.6442    1.0000 </r>
       <r>   -3.6319    1.0000 </r>
       <r>   -3.5837    1.0000 </r>
       <r>   -3.5214    1.0000 </r>
       <r>   -3.4972    1.0000 </r>
       <r>   -3.0403    1.0000 </r>
       <r>   -2.9588    1.0000 </r>
       <r>   -2.3157    1.0000 </r>
       <r>   -2.2810    1.0000 </r>
       <r>   -2.0332    1.0000 </r>
       <r>   -2.0024    1.0000 </r>
       <r>   -1.4871    1.0000 </r>
       <r>   -1.2410    1.0000 </r>
       <r>   -1.1472    1.0000 </r>
       <r>   -1.1099    1.0000 </r>
       <r>   -0.4902    1.0000 </r>
       <r>   -0.4871    1.0000 </r>
       <r>    0.6826    0.0000 </r>
       <r>    0.6959    0.0000 </r>
       <r>    0.9162    0.0000 </r>
       <r>    1.1011    0.0000 </r>
       <r>    1.4553    0.0000 </r>
       <r>    1.5399    0.0000 </r>
       <r>    1.5519    0.0000 </r>
       <r>    1.5616    0.0000 </r>
       <r>    1.5923    0.0000 </r>
       <r>    1.8030    0.0000 </r>
       <r>    2.1479    0.0000 </r>
       <r>    2.2129    0.0000 </r>
      </set>
      <set comment="kpoint 15">
       <r>  -12.8362    1.0000 </r>
       <r>  -12.7956    1.0000 </r>
       <r>  -12.0447    1.0000 </r>
       <r>  -11.9835    1.0000 </r>
       <r>  -11.3002    1.0000 </r>
       <r>  -11.2916    1.0000 </r>
       <r>  -10.9648    1.0000 </r>
       <r>  -10.9548    1.0000 </r>
       <r>   -5.2853    1.0000 </r>
       <r>   -5.2545    1.0000 </r>
       <r>   -5.1456    1.0000 </r>
       <r>   -5.1382    1.0000 </r>
       <r>   -5.1331    1.0000 </r>
       <r>   -4.8859    1.0000 </r>
       <r>   -4.1897    1.0000 </r>
       <r>   -4.1485    1.0000 </r>
       <r>   -3.7015    1.0000 </r>
       <r>   -3.6943    1.0000 </r>
       <r>   -3.6296    1.0000 </r>
       <r>   -3.5993    1.0000 </r>
       <r>   -3.5608    1.0000 </r>
       <r>   -3.4799    1.0000 </r>
       <r>   -3.3764    1.0000 </r>
       <r>   -3.1813    1.0000 </r>
       <r>   -2.6953    1.0000 </r>
       <r>   -2.6515    1.0000 </r>
       <r>   -2.3026    1.0000 </r>
       <r>   -2.2269    1.0000 </r>
       <r>   -1.8877    1.0000 </r>
       <r>   -1.8664    1.0000 </r>
       <r>   -1.4215    1.0000 </r>
       <r>   -1.2064    1.0000 </r>
       <r>   -1.1920    1.0000 </r>
       <r>   -1.0412    1.0000 </r>
       <r>   -0.5494    1.0000 </r>
       <r>   -0.5358    1.0000 </r>
       <r>    0.7466    0.0000 </r>
       <r>    0.7681    0.0000 </r>
       <r>    1.1087    0.0000 </r>
       <r>    1.2993    0.0000 </r>
       <r>    1.5501    0.0000 </r>
       <r>    1.5955    0.0000 </r>
       <r>    1.6112    0.0000 </r>
       <r>    1.6785    0.0000 </r>
       <r>    1.7172    0.0000 </r>
       <r>    1.8274    0.0000 </r>
       <r>    2.0177    0.0000 </r>
       <r>    2.1313    0.0000 </r>
      </set>
      <set comment="kpoint 16">
       <r>  -13.0707    1.0000 </r>
       <r>  -13.0289    1.0000 </r>
       <r>  -12.2127    1.0000 </r>
       <r>  -12.1474    1.0000 </r>
       <r>  -11.3643    1.0000 </r>
       <r>  -11.3524    1.0000 </r>
       <r>  -11.0141    1.0000 </r>
       <r>  -10.9991    1.0000 </r>
       <r>   -5.5181    1.0000 </r>
       <r>   -5.4995    1.0000 </r>
       <r>   -5.3468    1.0000 </r>
       <r>   -5.1345    1.0000 </r>
       <r>   -5.1050    1.0000 </r>
       <r>   -5.0783    1.0000 </r>
       <r>   -4.0104    1.0000 </r>
       <r>   -3.9384    1.0000 </r>
       <r>   -3.4840    1.0000 </r>
       <r>   -3.4174    1.0000 </r>
       <r>   -3.3839    1.0000 </r>
       <r>   -3.3368    1.0000 </r>
       <r>   -3.3298    1.0000 </r>
       <r>   -3.3154    1.0000 </r>
       <r>   -3.1710    1.0000 </r>
       <r>   -2.8999    1.0000 </r>
       <r>   -2.3107    1.0000 </r>
       <r>   -2.2886    1.0000 </r>
       <r>   -2.2778    1.0000 </r>
       <r>   -2.1455    1.0000 </r>
       <r>   -1.9130    1.0000 </r>
       <r>   -1.9023    1.0000 </r>
       <r>   -1.4018    1.0000 </r>
       <r>   -1.1643    1.0000 </r>
       <r>   -1.1450    1.0000 </r>
       <r>   -0.9249    1.0000 </r>
       <r>   -0.6403    1.0000 </r>
       <r>   -0.6087    1.0000 </r>
       <r>    0.8563    0.0000 </r>
       <r>    0.8902    0.0000 </r>
       <r>    1.3815    0.0000 </r>
       <r>    1.5497    0.0000 </r>
       <r>    1.6458    0.0000 </r>
       <r>    1.7039    0.0000 </r>
       <r>    1.7404    0.0000 </r>
       <r>    1.7758    0.0000 </r>
       <r>    1.8718    0.0000 </r>
       <r>    1.9643    0.0000 </r>
       <r>    2.0307    0.0000 </r>
       <r>    2.0827    0.0000 </r>
      </set>
      <set comment="kpoint 17">
       <r>  -13.2671    1.0000 </r>
       <r>  -13.2245    1.0000 </r>
       <r>  -12.3541    1.0000 </r>
       <r>  -12.2856    1.0000 </r>
       <r>  -11.4378    1.0000 </r>
       <r>  -11.4234    1.0000 </r>
       <r>  -11.0715    1.0000 </r>
       <r>  -11.0525    1.0000 </r>
       <r>   -5.7359    1.0000 </r>
       <r>   -5.7258    1.0000 </r>
       <r>   -5.5430    1.0000 </r>
       <r>   -5.2674    1.0000 </r>
       <r>   -5.1432    1.0000 </r>
       <r>   -5.0950    1.0000 </r>
       <r>   -3.9938    1.0000 </r>
       <r>   -3.9316    1.0000 </r>
       <r>   -3.3496    1.0000 </r>
       <r>   -3.3018    1.0000 </r>
       <r>   -3.0048    1.0000 </r>
       <r>   -2.9744    1.0000 </r>
       <r>   -2.9592    1.0000 </r>
       <r>   -2.8542    1.0000 </r>
       <r>   -2.7971    1.0000 </r>
       <r>   -2.6390    1.0000 </r>
       <r>   -2.2608    1.0000 </r>
       <r>   -2.0755    1.0000 </r>
       <r>   -2.0238    1.0000 </r>
       <r>   -2.0155    1.0000 </r>
       <r>   -1.9698    1.0000 </r>
       <r>   -1.9582    1.0000 </r>
       <r>   -1.4019    1.0000 </r>
       <r>   -1.1465    1.0000 </r>
       <r>   -1.0921    1.0000 </r>
       <r>   -0.8230    1.0000 </r>
       <r>   -0.7163    1.0000 </r>
       <r>   -0.6691    1.0000 </r>
       <r>    0.9599    0.0000 </r>
       <r>    1.0048    0.0000 </r>
       <r>    1.5800    0.0000 </r>
       <r>    1.7118    0.0000 </r>
       <r>    1.7491    0.0000 </r>
       <r>    1.8437    0.0000 </r>
       <r>    1.8620    0.0000 </r>
       <r>    1.9682    0.0000 </r>
       <r>    2.0377    0.0000 </r>
       <r>    2.0956    0.0000 </r>
       <r>    2.3831    0.0000 </r>
       <r>    2.4220    0.0000 </r>
      </set>
      <set comment="kpoint 18">
       <r>  -13.4192    1.0000 </r>
       <r>  -13.3761    1.0000 </r>
       <r>  -12.4639    1.0000 </r>
       <r>  -12.3930    1.0000 </r>
       <r>  -11.5051    1.0000 </r>
       <r>  -11.4892    1.0000 </r>
       <r>  -11.1247    1.0000 </r>
       <r>  -11.1030    1.0000 </r>
       <r>   -5.9104    1.0000 </r>
       <r>   -5.9058    1.0000 </r>
       <r>   -5.7037    1.0000 </r>
       <r>   -5.4246    1.0000 </r>
       <r>   -5.1665    1.0000 </r>
       <r>   -5.1026    1.0000 </r>
       <r>   -4.0232    1.0000 </r>
       <r>   -3.9707    1.0000 </r>
       <r>   -3.1863    1.0000 </r>
       <r>   -3.1563    1.0000 </r>
       <r>   -2.8313    1.0000 </r>
       <r>   -2.6673    1.0000 </r>
       <r>   -2.6591    1.0000 </r>
       <r>   -2.3839    1.0000 </r>
       <r>   -2.2851    1.0000 </r>
       <r>   -2.2573    1.0000 </r>
       <r>   -2.2177    1.0000 </r>
       <r>   -2.1374    1.0000 </r>
       <r>   -2.1294    1.0000 </r>
       <r>   -2.0346    1.0000 </r>
       <r>   -1.7191    1.0000 </r>
       <r>   -1.7123    1.0000 </r>
       <r>   -1.4202    1.0000 </r>
       <r>   -1.1964    1.0000 </r>
       <r>   -1.0690    1.0000 </r>
       <r>   -0.7653    1.0000 </r>
       <r>   -0.7571    1.0000 </r>
       <r>   -0.7125    1.0000 </r>
       <r>    1.0251    0.0000 </r>
       <r>    1.0692    0.0000 </r>
       <r>    1.4406    0.0000 </r>
       <r>    1.5381    0.0000 </r>
       <r>    2.1395    0.0000 </r>
       <r>    2.1702    0.0000 </r>
       <r>    2.2205    0.0000 </r>
       <r>    2.3226    0.0000 </r>
       <r>    2.4129    0.0000 </r>
       <r>    2.4893    0.0000 </r>
       <r>    2.6980    0.0000 </r>
       <r>    2.7339    0.0000 </r>
      </set>
      <set comment="kpoint 19">
       <r>  -13.5227    1.0000 </r>
       <r>  -13.4794    1.0000 </r>
       <r>  -12.5388    1.0000 </r>
       <r>  -12.4664    1.0000 </r>
       <r>  -11.5556    1.0000 </r>
       <r>  -11.5387    1.0000 </r>
       <r>  -11.1650    1.0000 </r>
       <r>  -11.1415    1.0000 </r>
       <r>   -6.0313    1.0000 </r>
       <r>   -6.0291    1.0000 </r>
       <r>   -5.8165    1.0000 </r>
       <r>   -5.5358    1.0000 </r>
       <r>   -5.1913    1.0000 </r>
       <r>   -5.1169    1.0000 </r>
       <r>   -4.0550    1.0000 </r>
       <r>   -4.0085    1.0000 </r>
       <r>   -3.0345    1.0000 </r>
       <r>   -3.0166    1.0000 </r>
       <r>   -2.7026    1.0000 </r>
       <r>   -2.4397    1.0000 </r>
       <r>   -2.4317    1.0000 </r>
       <r>   -2.2950    1.0000 </r>
       <r>   -2.2229    1.0000 </r>
       <r>   -2.2149    1.0000 </r>
       <r>   -2.1446    1.0000 </r>
       <r>   -2.0328    1.0000 </r>
       <r>   -1.7376    1.0000 </r>
       <r>   -1.7146    1.0000 </r>
       <r>   -1.5649    1.0000 </r>
       <r>   -1.5594    1.0000 </r>
       <r>   -1.4445    1.0000 </r>
       <r>   -1.3016    1.0000 </r>
       <r>   -1.0698    1.0000 </r>
       <r>   -0.7965    1.0000 </r>
       <r>   -0.7615    1.0000 </r>
       <r>   -0.7274    1.0000 </r>
       <r>    1.0385    0.0000 </r>
       <r>    1.0625    0.0000 </r>
       <r>    1.3798    0.0000 </r>
       <r>    1.4288    0.0000 </r>
       <r>    2.4727    0.0000 </r>
       <r>    2.5039    0.0000 </r>
       <r>    2.6705    0.0000 </r>
       <r>    2.7207    0.0000 </r>
       <r>    2.7957    0.0000 </r>
       <r>    2.8315    0.0000 </r>
       <r>    2.8723    0.0000 </r>
       <r>    2.8898    0.0000 </r>
      </set>
      <set comment="kpoint 20">
       <r>  -13.5751    1.0000 </r>
       <r>  -13.5316    1.0000 </r>
       <r>  -12.5768    1.0000 </r>
       <r>  -12.5036    1.0000 </r>
       <r>  -11.5825    1.0000 </r>
       <r>  -11.5651    1.0000 </r>
       <r>  -11.1866    1.0000 </r>
       <r>  -11.1622    1.0000 </r>
       <r>   -6.0936    1.0000 </r>
       <r>   -6.0910    1.0000 </r>
       <r>   -5.8745    1.0000 </r>
       <r>   -5.5931    1.0000 </r>
       <r>   -5.2066    1.0000 </r>
       <r>   -5.1270    1.0000 </r>
       <r>   -4.0739    1.0000 </r>
       <r>   -4.0303    1.0000 </r>
       <r>   -2.9401    1.0000 </r>
       <r>   -2.9267    1.0000 </r>
       <r>   -2.6302    1.0000 </r>
       <r>   -2.3223    1.0000 </r>
       <r>   -2.3178    1.0000 </r>
       <r>   -2.3097    1.0000 </r>
       <r>   -2.2686    1.0000 </r>
       <r>   -2.2606    1.0000 </r>
       <r>   -2.0385    1.0000 </r>
       <r>   -1.9663    1.0000 </r>
       <r>   -1.4935    1.0000 </r>
       <r>   -1.4896    1.0000 </r>
       <r>   -1.4613    1.0000 </r>
       <r>   -1.4282    1.0000 </r>
       <r>   -1.4133    1.0000 </r>
       <r>   -1.3458    1.0000 </r>
       <r>   -1.0765    1.0000 </r>
       <r>   -0.8412    1.0000 </r>
       <r>   -0.8191    1.0000 </r>
       <r>   -0.7183    1.0000 </r>
       <r>    1.0240    0.0000 </r>
       <r>    1.0350    0.0000 </r>
       <r>    1.3582    0.0000 </r>
       <r>    1.3985    0.0000 </r>
       <r>    2.6995    0.0000 </r>
       <r>    2.7333    0.0000 </r>
       <r>    2.7635    0.0000 </r>
       <r>    2.7897    0.0000 </r>
       <r>    2.8262    0.0000 </r>
       <r>    2.9932    0.0000 </r>
       <r>    3.0052    0.0000 </r>
       <r>    3.0570    0.0000 </r>
      </set>
      <set comment="kpoint 21">
       <r>  -13.5053    1.0000 </r>
       <r>  -13.4620    1.0000 </r>
       <r>  -12.5262    1.0000 </r>
       <r>  -12.4540    1.0000 </r>
       <r>  -11.7327    1.0000 </r>
       <r>  -11.7087    1.0000 </r>
       <r>  -11.2842    1.0000 </r>
       <r>  -11.2525    1.0000 </r>
       <r>   -5.8771    1.0000 </r>
       <r>   -5.8720    1.0000 </r>
       <r>   -5.7974    1.0000 </r>
       <r>   -5.5169    1.0000 </r>
       <r>   -5.0237    1.0000 </r>
       <r>   -4.9427    1.0000 </r>
       <r>   -4.1189    1.0000 </r>
       <r>   -4.0432    1.0000 </r>
       <r>   -2.8899    1.0000 </r>
       <r>   -2.8746    1.0000 </r>
       <r>   -2.7249    1.0000 </r>
       <r>   -2.4772    1.0000 </r>
       <r>   -2.4695    1.0000 </r>
       <r>   -2.2922    1.0000 </r>
       <r>   -2.2102    1.0000 </r>
       <r>   -2.2019    1.0000 </r>
       <r>   -2.1903    1.0000 </r>
       <r>   -1.9991    1.0000 </r>
       <r>   -1.5934    1.0000 </r>
       <r>   -1.5893    1.0000 </r>
       <r>   -1.5118    1.0000 </r>
       <r>   -1.4356    1.0000 </r>
       <r>   -1.4200    1.0000 </r>
       <r>   -1.2734    1.0000 </r>
       <r>   -1.0682    1.0000 </r>
       <r>   -0.9236    1.0000 </r>
       <r>   -0.8970    1.0000 </r>
       <r>   -0.7310    1.0000 </r>
       <r>    1.0821    0.0000 </r>
       <r>    1.0920    0.0000 </r>
       <r>    1.2421    0.0000 </r>
       <r>    1.3562    0.0000 </r>
       <r>    2.4093    0.0000 </r>
       <r>    2.4369    0.0000 </r>
       <r>    2.5856    0.0000 </r>
       <r>    2.6370    0.0000 </r>
       <r>    2.6440    0.0000 </r>
       <r>    2.8423    0.0000 </r>
       <r>    2.8847    0.0000 </r>
       <r>    2.9177    0.0000 </r>
      </set>
      <set comment="kpoint 22">
       <r>  -13.4535    1.0000 </r>
       <r>  -13.4103    1.0000 </r>
       <r>  -12.4887    1.0000 </r>
       <r>  -12.4173    1.0000 </r>
       <r>  -11.7027    1.0000 </r>
       <r>  -11.6792    1.0000 </r>
       <r>  -11.2612    1.0000 </r>
       <r>  -11.2302    1.0000 </r>
       <r>   -5.8238    1.0000 </r>
       <r>   -5.8194    1.0000 </r>
       <r>   -5.7408    1.0000 </r>
       <r>   -5.4611    1.0000 </r>
       <r>   -5.0101    1.0000 </r>
       <r>   -4.9346    1.0000 </r>
       <r>   -4.0931    1.0000 </r>
       <r>   -4.0172    1.0000 </r>
       <r>   -3.0147    1.0000 </r>
       <r>   -2.9823    1.0000 </r>
       <r>   -2.7896    1.0000 </r>
       <r>   -2.5922    1.0000 </r>
       <r>   -2.5844    1.0000 </r>
       <r>   -2.3118    1.0000 </r>
       <r>   -2.2353    1.0000 </r>
       <r>   -2.1666    1.0000 </r>
       <r>   -2.1585    1.0000 </r>
       <r>   -1.9747    1.0000 </r>
       <r>   -1.8030    1.0000 </r>
       <r>   -1.7499    1.0000 </r>
       <r>   -1.6715    1.0000 </r>
       <r>   -1.6664    1.0000 </r>
       <r>   -1.4217    1.0000 </r>
       <r>   -1.2176    1.0000 </r>
       <r>   -1.0670    1.0000 </r>
       <r>   -0.8728    1.0000 </r>
       <r>   -0.8340    1.0000 </r>
       <r>   -0.7450    1.0000 </r>
       <r>    1.0521    0.0000 </r>
       <r>    1.1065    0.0000 </r>
       <r>    1.2801    0.0000 </r>
       <r>    1.3585    0.0000 </r>
       <r>    2.2397    0.0000 </r>
       <r>    2.2636    0.0000 </r>
       <r>    2.3532    0.0000 </r>
       <r>    2.4379    0.0000 </r>
       <r>    2.5675    0.0000 </r>
       <r>    2.7686    0.0000 </r>
       <r>    2.7875    0.0000 </r>
       <r>    2.8020    0.0000 </r>
      </set>
      <set comment="kpoint 23">
       <r>  -13.3511    1.0000 </r>
       <r>  -13.3082    1.0000 </r>
       <r>  -12.4147    1.0000 </r>
       <r>  -12.3448    1.0000 </r>
       <r>  -11.6459    1.0000 </r>
       <r>  -11.6234    1.0000 </r>
       <r>  -11.2177    1.0000 </r>
       <r>  -11.1885    1.0000 </r>
       <r>   -5.7237    1.0000 </r>
       <r>   -5.7169    1.0000 </r>
       <r>   -5.6312    1.0000 </r>
       <r>   -5.3535    1.0000 </r>
       <r>   -4.9901    1.0000 </r>
       <r>   -4.9262    1.0000 </r>
       <r>   -4.0455    1.0000 </r>
       <r>   -3.9686    1.0000 </r>
       <r>   -3.1945    1.0000 </r>
       <r>   -3.1444    1.0000 </r>
       <r>   -2.9159    1.0000 </r>
       <r>   -2.8141    1.0000 </r>
       <r>   -2.8046    1.0000 </r>
       <r>   -2.5222    1.0000 </r>
       <r>   -2.2956    1.0000 </r>
       <r>   -2.2487    1.0000 </r>
       <r>   -2.1621    1.0000 </r>
       <r>   -2.0788    1.0000 </r>
       <r>   -2.0704    1.0000 </r>
       <r>   -1.9423    1.0000 </r>
       <r>   -1.7789    1.0000 </r>
       <r>   -1.7714    1.0000 </r>
       <r>   -1.4561    1.0000 </r>
       <r>   -1.1965    1.0000 </r>
       <r>   -1.0819    1.0000 </r>
       <r>   -0.8372    1.0000 </r>
       <r>   -0.7921    1.0000 </r>
       <r>   -0.7882    1.0000 </r>
       <r>    1.0290    0.0000 </r>
       <r>    1.1319    0.0000 </r>
       <r>    1.3261    0.0000 </r>
[...]
       <r>  -11.8583    1.0000 </r>
       <r>  -11.8023    1.0000 </r>
       <r>   -5.1670    1.0000 </r>
       <r>   -4.9976    1.0000 </r>
       <r>   -4.9128    1.0000 </r>
       <r>   -4.8008    1.0000 </r>
       <r>   -4.0936    1.0000 </r>
       <r>   -4.0624    1.0000 </r>
       <r>   -3.7928    1.0000 </r>
       <r>   -3.6873    1.0000 </r>
       <r>   -3.6819    1.0000 </r>
       <r>   -3.6696    1.0000 </r>
       <r>   -3.4115    1.0000 </r>
       <r>   -3.2194    1.0000 </r>
       <r>   -2.7426    1.0000 </r>
       <r>   -2.6671    1.0000 </r>
       <r>   -2.5159    1.0000 </r>
       <r>   -2.4608    1.0000 </r>
       <r>   -1.8197    1.0000 </r>
       <r>   -1.8168    1.0000 </r>
       <r>   -1.7981    1.0000 </r>
       <r>   -1.7688    1.0000 </r>
       <r>   -1.6981    1.0000 </r>
       <r>   -1.5272    1.0000 </r>
       <r>   -1.4293    1.0000 </r>
       <r>   -1.2701    1.0000 </r>
       <r>   -1.2398    1.0000 </r>
       <r>   -1.2298    1.0000 </r>
       <r>   -1.1844    1.0000 </r>
       <r>   -1.0846    1.0000 </r>
       <r>    0.9663    0.0000 </r>
       <r>    1.1295    0.0000 </r>
       <r>    1.1869    0.0000 </r>
       <r>    1.3414    0.0000 </r>
       <r>    1.5368    0.0000 </r>
       <r>    1.6020    0.0000 </r>
       <r>    1.6271    0.0000 </r>
       <r>    1.7620    0.0000 </r>
       <r>    1.7886    0.0000 </r>
       <r>    1.8162    0.0000 </r>
       <r>    1.9053    0.0000 </r>
       <r>    2.0551    0.0000 </r>
      </set>
      <set comment="kpoint 100">
       <r>  -12.9132    1.0000 </r>
       <r>  -12.8722    1.0000 </r>
       <r>  -12.6168    1.0000 </r>
       <r>  -12.5779    1.0000 </r>
       <r>  -12.0999    1.0000 </r>
       <r>  -12.0373    1.0000 </r>
       <r>  -11.8895    1.0000 </r>
       <r>  -11.8326    1.0000 </r>
       <r>   -5.2098    1.0000 </r>
       <r>   -5.0276    1.0000 </r>
       <r>   -4.9524    1.0000 </r>
       <r>   -4.8229    1.0000 </r>
       <r>   -4.0930    1.0000 </r>
       <r>   -4.0713    1.0000 </r>
       <r>   -3.8099    1.0000 </r>
       <r>   -3.6792    1.0000 </r>
       <r>   -3.6495    1.0000 </r>
       <r>   -3.6425    1.0000 </r>
       <r>   -3.4216    1.0000 </r>
       <r>   -3.2261    1.0000 </r>
       <r>   -2.4676    1.0000 </r>
       <r>   -2.4397    1.0000 </r>
       <r>   -2.2456    1.0000 </r>
       <r>   -2.2220    1.0000 </r>
       <r>   -1.9232    1.0000 </r>
       <r>   -1.7457    1.0000 </r>
       <r>   -1.7313    1.0000 </r>
       <r>   -1.7027    1.0000 </r>
       <r>   -1.6067    1.0000 </r>
       <r>   -1.5733    1.0000 </r>
       <r>   -1.5233    1.0000 </r>
       <r>   -1.3846    1.0000 </r>
       <r>   -1.3778    1.0000 </r>
       <r>   -1.2965    1.0000 </r>
       <r>   -1.2696    1.0000 </r>
       <r>   -1.1187    1.0000 </r>
       <r>    1.0055    0.0000 </r>
       <r>    1.1600    0.0000 </r>
       <r>    1.2535    0.0000 </r>
       <r>    1.3893    0.0000 </r>
       <r>    1.6404    0.0000 </r>
       <r>    1.6873    0.0000 </r>
       <r>    1.7148    0.0000 </r>
       <r>    1.8542    0.0000 </r>
       <r>    1.9397    0.0000 </r>
       <r>    1.9669    0.0000 </r>
       <r>    2.0022    0.0000 </r>
       <r>    2.1956    0.0000 </r>
      </set>
     </set>
    </set>
   </array>
  </eigenvalues>
  <separator name="orbital magnetization" >
   <v name="MAGDIPOLOUT">      0.00000000      0.00000000      0.00000000</v>
  </separator>
  <dos>
   <i name="efermi">     -0.22835749 </i>
   <total>
    <array>
     <dimension dim="1">gridpoints</dimension>
     <dimension dim="2">spin</dimension>
     <field>energy</field>
     <field>total</field>
     <field>integrated</field>
     <set>
      <set comment="spin 1">
       <r>   -14.4085     0.0000     0.0000 </r>
       <r>   -14.3474     0.0000     0.0000 </r>
       <r>   -14.2863     0.0000     0.0000 </r>
       <r>   -14.2252     0.0000     0.0000 </r>
       <r>   -14.1641     0.0000     0.0000 </r>
       <r>   -14.1029     0.0000     0.0000 </r>
       <r>   -14.0418     0.0000     0.0000 </r>
       <r>   -13.9807     0.0000     0.0000 </r>
       <r>   -13.9196     0.0000     0.0000 </r>
       <r>   -13.8585     0.0000     0.0000 </r>
       <r>   -13.7974     0.0000     0.0000 </r>
       <r>   -13.7363     0.0000     0.0000 </r>
       <r>   -13.6751     0.0016     0.0001 </r>
       <r>   -13.6140     0.0977     0.0061 </r>
       <r>   -13.5529     0.7654     0.0528 </r>
       <r>   -13.4918     1.7872     0.1621 </r>
       <r>   -13.4307     2.0686     0.2885 </r>
       <r>   -13.3696     2.0573     0.4142 </r>
       <r>   -13.3085     2.3118     0.5555 </r>
       <r>   -13.2474     2.0346     0.6798 </r>
       <r>   -13.1862     2.1473     0.8111 </r>
       <r>   -13.1251     2.2832     0.9506 </r>
       <r>   -13.0640     2.2440     1.0877 </r>
       <r>   -13.0029     2.5855     1.2457 </r>
       <r>   -12.9418     1.8102     1.3564 </r>
       <r>   -12.8807     2.0525     1.4818 </r>
       <r>   -12.8196     3.2201     1.6786 </r>
       <r>   -12.7585     2.4826     1.8303 </r>
       <r>   -12.6973     1.9011     1.9465 </r>
       <r>   -12.6362     2.2182     2.0821 </r>
       <r>   -12.5751     3.3225     2.2851 </r>
       <r>   -12.5140     4.4784     2.5588 </r>
       <r>   -12.4529     5.7935     2.9128 </r>
       <r>   -12.3918     5.2623     3.2344 </r>
       <r>   -12.3307     4.7028     3.5218 </r>
       <r>   -12.2695     6.1849     3.8998 </r>
       <r>   -12.2084     7.7179     4.3715 </r>
       <r>   -12.1473     6.1377     4.7466 </r>
       <r>   -12.0862     5.0873     5.0575 </r>
       <r>   -12.0251     6.7104     5.4676 </r>
       <r>   -11.9640     7.7518     5.9413 </r>
       <r>   -11.9029     7.3452     6.3902 </r>
       <r>   -11.8418     7.6573     6.8582 </r>
       <r>   -11.7806     7.6740     7.3271 </r>
       <r>   -11.7195     8.4336     7.8425 </r>
       <r>   -11.6584    10.2914     8.4715 </r>
       <r>   -11.5973    11.1189     9.1510 </r>
       <r>   -11.5362    12.9745     9.9439 </r>
       <r>   -11.4751    12.4305    10.7036 </r>
       <r>   -11.4140    11.2509    11.3911 </r>
       <r>   -11.3529    11.1866    12.0748 </r>
       <r>   -11.2917    10.2655    12.7021 </r>
       <r>   -11.2306    11.0297    13.3762 </r>
       <r>   -11.1695    10.7590    14.0337 </r>
       <r>   -11.1084    11.1190    14.7132 </r>
       <r>   -11.0473     8.4562    15.2300 </r>
       <r>   -10.9862     6.7646    15.6434 </r>
       <r>   -10.9251     4.6244    15.9260 </r>
       <r>   -10.8639     1.1644    15.9972 </r>
       <r>   -10.8028     0.0456    16.0000 </r>
       <r>   -10.7417     0.0002    16.0000 </r>
       <r>   -10.6806     0.0000    16.0000 </r>
       <r>   -10.6195     0.0000    16.0000 </r>
       <r>   -10.5584     0.0000    16.0000 </r>
       <r>   -10.4973     0.0000    16.0000 </r>
       <r>   -10.4362     0.0000    16.0000 </r>
       <r>   -10.3750     0.0000    16.0000 </r>
       <r>   -10.3139     0.0000    16.0000 </r>
       <r>   -10.2528     0.0000    16.0000 </r>
       <r>   -10.1917     0.0000    16.0000 </r>
       <r>   -10.1306     0.0000    16.0000 </r>
       <r>   -10.0695     0.0000    16.0000 </r>
       <r>   -10.0084     0.0000    16.0000 </r>
       <r>    -9.9472     0.0000    16.0000 </r>
       <r>    -9.8861     0.0000    16.0000 </r>
       <r>    -9.8250     0.0000    16.0000 </r>
       <r>    -9.7639     0.0000    16.0000 </r>
       <r>    -9.7028     0.0000    16.0000 </r>
       <r>    -9.6417     0.0000    16.0000 </r>
       <r>    -9.5806     0.0000    16.0000 </r>
       <r>    -9.5195     0.0000    16.0000 </r>
       <r>    -9.4583     0.0000    16.0000 </r>
       <r>    -9.3972     0.0000    16.0000 </r>
       <r>    -9.3361     0.0000    16.0000 </r>
       <r>    -9.2750     0.0000    16.0000 </r>
       <r>    -9.2139     0.0000    16.0000 </r>
       <r>    -9.1528     0.0000    16.0000 </r>
       <r>    -9.0917     0.0000    16.0000 </r>
       <r>    -9.0306     0.0000    16.0000 </r>
       <r>    -8.9694     0.0000    16.0000 </r>
       <r>    -8.9083     0.0000    16.0000 </r>
       <r>    -8.8472     0.0000    16.0000 </r>
       <r>    -8.7861     0.0000    16.0000 </r>
       <r>    -8.7250     0.0000    16.0000 </r>
       <r>    -8.6639     0.0000    16.0000 </r>
       <r>    -8.6028     0.0000    16.0000 </r>
       <r>    -8.5416     0.0000    16.0000 </r>
       <r>    -8.4805     0.0000    16.0000 </r>
       <r>    -8.4194     0.0000    16.0000 </r>
       <r>    -8.3583     0.0000    16.0000 </r>
       <r>    -8.2972     0.0000    16.0000 </r>
       <r>    -8.2361     0.0000    16.0000 </r>
       <r>    -8.1750     0.0000    16.0000 </r>
       <r>    -8.1139     0.0000    16.0000 </r>
       <r>    -8.0527     0.0000    16.0000 </r>
       <r>    -7.9916     0.0000    16.0000 </r>
       <r>    -7.9305     0.0000    16.0000 </r>
       <r>    -7.8694     0.0000    16.0000 </r>
       <r>    -7.8083     0.0000    16.0000 </r>
       <r>    -7.7472     0.0000    16.0000 </r>
       <r>    -7.6861     0.0000    16.0000 </r>
       <r>    -7.6250     0.0000    16.0000 </r>
       <r>    -7.5638     0.0000    16.0000 </r>
       <r>    -7.5027     0.0000    16.0000 </r>
       <r>    -7.4416     0.0000    16.0000 </r>
       <r>    -7.3805     0.0000    16.0000 </r>
       <r>    -7.3194     0.0000    16.0000 </r>
       <r>    -7.2583     0.0000    16.0000 </r>
       <r>    -7.1972     0.0000    16.0000 </r>
       <r>    -7.1360     0.0000    16.0000 </r>
       <r>    -7.0749     0.0000    16.0000 </r>
       <r>    -7.0138     0.0000    16.0000 </r>
       <r>    -6.9527     0.0000    16.0000 </r>
       <r>    -6.8916     0.0000    16.0000 </r>
       <r>    -6.8305     0.0000    16.0000 </r>
       <r>    -6.7694     0.0000    16.0000 </r>
       <r>    -6.7083     0.0000    16.0000 </r>
       <r>    -6.6471     0.0000    16.0000 </r>
       <r>    -6.5860     0.0000    16.0000 </r>
       <r>    -6.5249     0.0000    16.0000 </r>
       <r>    -6.4638     0.0000    16.0000 </r>
       <r>    -6.4027     0.0000    16.0000 </r>
       <r>    -6.3416     0.0000    16.0000 </r>
       <r>    -6.2805     0.0000    16.0000 </r>
       <r>    -6.2194     0.0016    16.0001 </r>
       <r>    -6.1582     0.1734    16.0107 </r>
       <r>    -6.0971     1.7520    16.1178 </r>
       <r>    -6.0360     2.9289    16.2968 </r>
       <r>    -5.9749     3.1324    16.4882 </r>
       <r>    -5.9138     3.5988    16.7081 </r>
       <r>    -5.8527     3.5602    16.9257 </r>
       <r>    -5.7916     4.5931    17.2064 </r>
       <r>    -5.7304     5.7532    17.5580 </r>
       <r>    -5.6693     4.8173    17.8524 </r>
       <r>    -5.6082     3.6795    18.0773 </r>
       <r>    -5.5471     5.0777    18.3876 </r>
       <r>    -5.4860     8.0800    18.8814 </r>
       <r>    -5.4249     9.1104    19.4381 </r>
       <r>    -5.3638     6.9999    19.8659 </r>
       <r>    -5.3027     9.3829    20.4393 </r>
       <r>    -5.2415     8.4872    20.9580 </r>
       <r>    -5.1804    10.6895    21.6113 </r>
       <r>    -5.1193    17.9762    22.7099 </r>
       <r>    -5.0582    19.0066    23.8714 </r>
       <r>    -4.9971    15.5223    24.8200 </r>
       <r>    -4.9360    13.3410    25.6354 </r>
       <r>    -4.8749     9.4893    26.2153 </r>
       <r>    -4.8137     7.5976    26.6796 </r>
       <r>    -4.7526     6.0980    27.0523 </r>
       <r>    -4.6915     4.6490    27.3364 </r>
       <r>    -4.6304     5.1543    27.6514 </r>
       <r>    -4.5693     3.6432    27.8740 </r>
       <r>    -4.5082     1.7125    27.9787 </r>
       <r>    -4.4471     1.6517    28.0796 </r>
       <r>    -4.3860     3.1138    28.2699 </r>
       <r>    -4.3248     3.9606    28.5119 </r>
       <r>    -4.2637     4.9511    28.8145 </r>
       <r>    -4.2026     7.7094    29.2857 </r>
       <r>    -4.1415    11.1555    29.9674 </r>
       <r>    -4.0804    17.9357    31.0635 </r>
       <r>    -4.0193    24.1918    32.5420 </r>
       <r>    -3.9582    21.7729    33.8726 </r>
       <r>    -3.8971    14.4168    34.7536 </r>
       <r>    -3.8359     8.5594    35.2767 </r>
       <r>    -3.7748     6.3952    35.6675 </r>
       <r>    -3.7137     5.1536    35.9825 </r>
       <r>    -3.6526     7.2431    36.4251 </r>
       <r>    -3.5915     8.4243    36.9400 </r>
       <r>    -3.5304     7.3520    37.3893 </r>
       <r>    -3.4693     9.8483    37.9911 </r>
       <r>    -3.4081    12.3770    38.7475 </r>
       <r>    -3.3470    13.5601    39.5762 </r>
       <r>    -3.2859    11.7016    40.2914 </r>
       <r>    -3.2248    10.7754    40.9499 </r>
       <r>    -3.1637    11.7633    41.6688 </r>
       <r>    -3.1026    10.6890    42.3220 </r>
       <r>    -3.0415     8.9515    42.8691 </r>
       <r>    -2.9804    11.0744    43.5458 </r>
       <r>    -2.9192    12.4649    44.3076 </r>
       <r>    -2.8581    11.8836    45.0339 </r>
       <r>    -2.7970    11.4133    45.7314 </r>
       <r>    -2.7359     9.1636    46.2914 </r>
       <r>    -2.6748     7.1200    46.7265 </r>
       <r>    -2.6137     8.3128    47.2345 </r>
       <r>    -2.5526     6.1359    47.6095 </r>
       <r>    -2.4915     5.4085    47.9400 </r>
       <r>    -2.4303     5.5314    48.2781 </r>
       <r>    -2.3692     6.1273    48.6525 </r>
       <r>    -2.3081    10.8042    49.3128 </r>
       <r>    -2.2470    17.9687    50.4109 </r>
       <r>    -2.1859    17.3537    51.4715 </r>
       <r>    -2.1248    14.5471    52.3605 </r>
       <r>    -2.0637    14.3865    53.2397 </r>
       <r>    -2.0025    17.6331    54.3173 </r>
       <r>    -1.9414    19.6341    55.5172 </r>
       <r>    -1.8803    17.0720    56.5605 </r>
       <r>    -1.8192    14.4128    57.4413 </r>
       <r>    -1.7581    15.4230    58.3839 </r>
       <r>    -1.6970    11.9911    59.1167 </r>
       <r>    -1.6359    10.2921    59.7457 </r>
       <r>    -1.5748    11.9767    60.4776 </r>
       <r>    -1.5136    12.1522    61.2203 </r>
       <r>    -1.4525    10.6418    61.8706 </r>
       <r>    -1.3914    12.4145    62.6293 </r>
       <r>    -1.3303     8.3132    63.1374 </r>
       <r>    -1.2692     8.3339    63.6467 </r>
       <r>    -1.2081    11.8484    64.3708 </r>
       <r>    -1.1470    13.7936    65.2137 </r>
       <r>    -1.0859    14.9730    66.1288 </r>
       <r>    -1.0247    13.7922    66.9717 </r>
       <r>    -0.9636     9.7975    67.5704 </r>
       <r>    -0.9025    11.9833    68.3028 </r>
       <r>    -0.8414    13.3165    69.1166 </r>
       <r>    -0.7803    14.7941    70.0207 </r>
       <r>    -0.7192    13.1201    70.8225 </r>
       <r>    -0.6581     8.0054    71.3117 </r>
       <r>    -0.5969     5.1364    71.6256 </r>
       <r>    -0.5358     3.2532    71.8244 </r>
       <r>    -0.4747     2.2179    71.9600 </r>
       <r>    -0.4136     0.6298    71.9985 </r>
       <r>    -0.3525     0.0249    72.0000 </r>
       <r>    -0.2914     0.0001    72.0000 </r>
       <r>    -0.2303     0.0000    72.0000 </r>
       <r>    -0.1692     0.0000    72.0000 </r>
       <r>    -0.1080     0.0000    72.0000 </r>
       <r>    -0.0469     0.0000    72.0000 </r>
       <r>     0.0142     0.0000    72.0000 </r>
       <r>     0.0753     0.0000    72.0000 </r>
       <r>     0.1364     0.0000    72.0000 </r>
       <r>     0.1975     0.0000    72.0000 </r>
       <r>     0.2586     0.0000    72.0000 </r>
       <r>     0.3198     0.0000    72.0000 </r>
       <r>     0.3809     0.0000    72.0000 </r>
       <r>     0.4420     0.0000    72.0000 </r>
       <r>     0.5031     0.0000    72.0000 </r>
       <r>     0.5642     0.0003    72.0000 </r>
       <r>     0.6253     0.0535    72.0033 </r>
       <r>     0.6864     0.7935    72.0518 </r>
       <r>     0.7475     2.0426    72.1766 </r>
       <r>     0.8087     3.6888    72.4020 </r>
       <r>     0.8698     7.2031    72.8422 </r>
       <r>     0.9309     9.5926    73.4285 </r>
       <r>     0.9920    15.1516    74.3544 </r>
       <r>     1.0531    21.4302    75.6641 </r>
       <r>     1.1142    20.5221    76.9183 </r>
       <r>     1.1753    14.2778    77.7908 </r>
       <r>     1.2364     9.6895    78.3830 </r>
       <r>     1.2976    14.6149    79.2762 </r>
       <r>     1.3587    23.1170    80.6889 </r>
       <r>     1.4198    20.8985    81.9661 </r>
       <r>     1.4809    13.5475    82.7940 </r>
       <r>     1.5420    11.8451    83.5179 </r>
       <r>     1.6031    13.8287    84.3630 </r>
       <r>     1.6642    13.8740    85.2109 </r>
       <r>     1.7254    15.6615    86.1680 </r>
       <r>     1.7865    14.7951    87.0722 </r>
       <r>     1.8476    13.4826    87.8962 </r>
       <r>     1.9087    13.7579    88.7369 </r>
       <r>     1.9698    14.3052    89.6112 </r>
       <r>     2.0309    12.6154    90.3821 </r>
       <r>     2.0920    10.2880    91.0109 </r>
       <r>     2.1531     9.3536    91.5825 </r>
       <r>     2.2143     7.4246    92.0363 </r>
       <r>     2.2754     5.8689    92.3949 </r>
       <r>     2.3365     6.4273    92.7877 </r>
       <r>     2.3976     6.2916    93.1722 </r>
       <r>     2.4587     5.1553    93.4873 </r>
       <r>     2.5198     5.4872    93.8226 </r>
       <r>     2.5809     4.8272    94.1176 </r>
       <r>     2.6420     4.2654    94.3783 </r>
       <r>     2.7032     4.3732    94.6455 </r>
       <r>     2.7643     5.4973    94.9815 </r>
       <r>     2.8254     5.7120    95.3306 </r>
       <r>     2.8865     3.8666    95.5669 </r>
       <r>     2.9476     2.5861    95.7249 </r>
       <r>     3.0087     1.7081    95.8293 </r>
       <r>     3.0698     1.6236    95.9285 </r>
       <r>     3.1310     1.0248    95.9912 </r>
       <r>     3.1921     0.1427    95.9999 </r>
       <r>     3.2532     0.0020    96.0000 </r>
       <r>     3.3143     0.0000    96.0000 </r>
       <r>     3.3754     0.0000    96.0000 </r>
       <r>     3.4365     0.0000    96.0000 </r>
       <r>     3.4976     0.0000    96.0000 </r>
       <r>     3.5587     0.0000    96.0000 </r>
       <r>     3.6199     0.0000    96.0000 </r>
       <r>     3.6810     0.0000    96.0000 </r>
       <r>     3.7421     0.0000    96.0000 </r>
       <r>     3.8032     0.0000    96.0000 </r>
       <r>     3.8643     0.0000    96.0000 </r>
       <r>     3.9254     0.0000    96.0000 </r>
      </set>
     </set>
    </array>
   </total>
  </dos>
 </calculation>
 <structure name="finalpos" >
  <crystal>
   <varray name="basis" >
    <v>       3.55100000       0.00000000       0.00000000 </v>
    <v>       0.00000000       6.14900000       0.00000000 </v>
    <v>       0.00000000       0.00000000      35.00000000 </v>
   </varray>
   <i name="volume">    764.22846500 </i>
   <varray name="rec_basis" >
    <v>       0.28161081       0.00000000       0.00000000 </v>
    <v>       0.00000000       0.16262807       0.00000000 </v>
    <v>       0.00000000       0.00000000       0.02857143 </v>
   </varray>
  </crystal>
  <varray name="positions" >
   <v>       0.00000000       0.66668737       0.16062496 </v>
   <v>       0.00000000       0.66666382       0.05883366 </v>
   <v>       0.50000000       0.16666917       0.16062661 </v>
   <v>       0.50000000       0.16667825       0.05883342 </v>
   <v>       0.00000000       0.33312661       0.37979062 </v>
   <v>       0.00000000       0.33349109       0.27787705 </v>
   <v>       0.50000000       0.83351400       0.37981714 </v>
   <v>       0.50000000       0.83318721       0.27787588 </v>
   <v>       0.00000000       0.00002280       0.10965813 </v>
   <v>       0.50000000       0.50002412       0.10966283 </v>
   <v>       0.00000000       0.99988989       0.32872400 </v>
   <v>       0.50000000       0.49995597       0.32885470 </v>
  </varray>
 </structure>
</modeling>
