<?xml version="1.0" encoding="ISO-8859-1"?>
<modeling>
 <generator>
  <i name="program" type="string">vasp </i>
  <i name="version" type="string">5.4.4.18Apr17-6-g9f103f2a35  </i>
  <i name="subversion" type="string">(build Nov 26 2018 16:29:41) complex            parallel </i>
  <i name="platform" type="string">LinuxIFC </i>
  <i name="date" type="string">2019 10 22 </i>
  <i name="time" type="string">09:39:56 </i>
 </generator>
 <incar>
  <i type="string" name="SYSTEM"> MoTe2</i>
  <i type="string" name="PREC">accurate</i>
  <i type="string" name="ALGO"> Normal</i>
  <i type="int" name="IBRION">     2</i>
  <i name="EDIFF">      0.00010000</i>
  <i type="int" name="NSW">  1000</i>
  <i type="int" name="ISIF">     3</i>
  <i type="int" name="ISYM">     2</i>
  <i name="ENCUT">    400.00000000</i>
  <i name="POTIM">      0.50000000</i>
  <i type="logical" name="LREAL"> F  </i>
  <i type="int" name="ISMEAR">     0</i>
  <i name="SIGMA">      0.05000000</i>
  <i type="int" name="NWRITE">     1</i>
  <i type="logical" name="LWAVE"> F  </i>
  <i type="logical" name="LCHARG"> T  </i>
  <i type="logical" name="LVTOT"> T  </i>
  <i type="logical" name="LASPH"> T  </i>
  <v type="int" name="KPOINT_BSE">    -1     0     0     0</v>
  <i type="logical" name="LUSE_VDW"> T  </i>
  <i name="BPARAM">     15.70000000</i>
  <i type="logical" name="LDIPOL"> T  </i>
  <i type="int" name="IDIPOL">     3</i>
  <i type="string" name="METAGGA"> SCAN</i>
  <i type="logical" name="LASPH"> T  </i>
 </incar>
 <structure name="primitive_cell" >
  <crystal>
   <varray name="basis" >
    <v>      -1.75788850      -3.04474450       0.00000000 </v>
    <v>      -1.75788850       3.04474450       0.00000000 </v>
    <v>       0.00000000       0.00000000     -35.00000000 </v>
   </varray>
   <i name="volume">    374.66249394 </i>
   <varray name="rec_basis" >
    <v>      -0.28443215      -0.16421739       0.00000000 </v>
    <v>      -0.28443215       0.16421739       0.00000000 </v>
    <v>       0.00000000       0.00000000      -0.02857143 </v>
   </varray>
  </crystal>
  <varray name="positions" >
   <v>       0.33333333      -0.33333333      -0.16132393 </v>
   <v>       0.00000000       0.00000000      -0.10961889 </v>
   <v>       0.33333333      -0.33333333      -0.05791385 </v>
   <v>      -0.33333333       0.33333333      -0.27715164 </v>
   <v>       0.00000000       0.00000000      -0.32885668 </v>
   <v>      -0.33333333       0.33333333      -0.38056172 </v>
  </varray>
 </structure>
 <varray name="primitive_index" >
  <v type="int" >        1 </v>
  <v type="int" >        9 </v>
  <v type="int" >        2 </v>
  <v type="int" >        6 </v>
  <v type="int" >       11 </v>
  <v type="int" >        5 </v>
 </varray>
 <kpoints>
  <generation param="Monkhorst-Pack">
   <v type="int" name="divisions">      20       10        1 </v>
   <v name="usershift">      0.00000000       0.00000000       0.00000000 </v>
   <v name="genvec1">      0.05000000       0.00000000       0.00000000 </v>
   <v name="genvec2">      0.00000000       0.10000000       0.00000000 </v>
   <v name="genvec3">      0.00000000       0.00000000       1.00000000 </v>
   <v name="shift">      0.50000000       0.50000000       0.00000000 </v>
  </generation>
  <varray name="kpointlist" >
   <v>       0.02500000       0.05000000       0.00000000 </v>
   <v>       0.07500000       0.05000000       0.00000000 </v>
   <v>       0.12500000       0.05000000       0.00000000 </v>
   <v>       0.17500000       0.05000000       0.00000000 </v>
   <v>       0.22500000       0.05000000       0.00000000 </v>
   <v>       0.27500000       0.05000000       0.00000000 </v>
   <v>       0.32500000       0.05000000       0.00000000 </v>
   <v>       0.37500000       0.05000000       0.00000000 </v>
   <v>       0.42500000       0.05000000       0.00000000 </v>
   <v>       0.47500000       0.05000000       0.00000000 </v>
   <v>       0.02500000       0.15000000       0.00000000 </v>
   <v>       0.07500000       0.15000000       0.00000000 </v>
   <v>       0.12500000       0.15000000       0.00000000 </v>
   <v>       0.17500000       0.15000000       0.00000000 </v>
   <v>       0.22500000       0.15000000       0.00000000 </v>
   <v>       0.27500000       0.15000000       0.00000000 </v>
   <v>       0.32500000       0.15000000       0.00000000 </v>
   <v>       0.37500000       0.15000000       0.00000000 </v>
   <v>       0.42500000       0.15000000       0.00000000 </v>
   <v>       0.47500000       0.15000000       0.00000000 </v>
   <v>       0.02500000       0.25000000       0.00000000 </v>
   <v>       0.07500000       0.25000000       0.00000000 </v>
   <v>       0.12500000       0.25000000       0.00000000 </v>
   <v>       0.17500000       0.25000000       0.00000000 </v>
   <v>       0.22500000       0.25000000       0.00000000 </v>
   <v>       0.27500000       0.25000000       0.00000000 </v>
   <v>       0.32500000       0.25000000       0.00000000 </v>
   <v>       0.37500000       0.25000000       0.00000000 </v>
   <v>       0.42500000       0.25000000       0.00000000 </v>
   <v>       0.47500000       0.25000000       0.00000000 </v>
   <v>       0.02500000       0.35000000       0.00000000 </v>
   <v>       0.07500000       0.35000000       0.00000000 </v>
   <v>       0.12500000       0.35000000       0.00000000 </v>
   <v>       0.17500000       0.35000000       0.00000000 </v>
   <v>       0.22500000       0.35000000       0.00000000 </v>
   <v>       0.27500000       0.35000000       0.00000000 </v>
   <v>       0.32500000       0.35000000       0.00000000 </v>
   <v>       0.37500000       0.35000000       0.00000000 </v>
   <v>       0.42500000       0.35000000       0.00000000 </v>
   <v>       0.47500000       0.35000000       0.00000000 </v>
   <v>       0.02500000       0.45000000       0.00000000 </v>
   <v>       0.07500000       0.45000000       0.00000000 </v>
   <v>       0.12500000       0.45000000       0.00000000 </v>
   <v>       0.17500000       0.45000000       0.00000000 </v>
   <v>       0.22500000       0.45000000       0.00000000 </v>
   <v>       0.27500000       0.45000000       0.00000000 </v>
   <v>       0.32500000       0.45000000       0.00000000 </v>
   <v>       0.37500000       0.45000000       0.00000000 </v>
   <v>       0.42500000       0.45000000       0.00000000 </v>
   <v>       0.47500000       0.45000000       0.00000000 </v>
  </varray>
  <varray name="weights" >
   <v>       0.02000000 </v>
   <v>       0.02000000 </v>
   <v>       0.02000000 </v>
   <v>       0.02000000 </v>
   <v>       0.02000000 </v>
   <v>       0.02000000 </v>
   <v>       0.02000000 </v>
   <v>       0.02000000 </v>
   <v>       0.02000000 </v>
   <v>       0.02000000 </v>
   <v>       0.02000000 </v>
   <v>       0.02000000 </v>
   <v>       0.02000000 </v>
   <v>       0.02000000 </v>
   <v>       0.02000000 </v>
   <v>       0.02000000 </v>
   <v>       0.02000000 </v>
   <v>       0.02000000 </v>
   <v>       0.02000000 </v>
   <v>       0.02000000 </v>
   <v>       0.02000000 </v>
   <v>       0.02000000 </v>
   <v>       0.02000000 </v>
   <v>       0.02000000 </v>
   <v>       0.02000000 </v>
   <v>       0.02000000 </v>
   <v>       0.02000000 </v>
   <v>       0.02000000 </v>
   <v>       0.02000000 </v>
   <v>       0.02000000 </v>
   <v>       0.02000000 </v>
   <v>       0.02000000 </v>
   <v>       0.02000000 </v>
   <v>       0.02000000 </v>
   <v>       0.02000000 </v>
   <v>       0.02000000 </v>
   <v>       0.02000000 </v>
   <v>       0.02000000 </v>
   <v>       0.02000000 </v>
   <v>       0.02000000 </v>
   <v>       0.02000000 </v>
   <v>       0.02000000 </v>
   <v>       0.02000000 </v>
   <v>       0.02000000 </v>
   <v>       0.02000000 </v>
   <v>       0.02000000 </v>
   <v>       0.02000000 </v>
   <v>       0.02000000 </v>
   <v>       0.02000000 </v>
   <v>       0.02000000 </v>
  </varray>
 </kpoints>
 <parameters>
  <separator name="general" >
   <i type="string" name="SYSTEM">MoTe2</i>
   <i type="logical" name="LCOMPAT"> F  </i>
  </separator>
  <separator name="electronic" >
   <i type="string" name="PREC">accura</i>
   <i name="ENMAX">    400.00000000</i>
   <i name="ENAUG">    368.79200000</i>
   <i name="EDIFF">      0.00010000</i>
   <i type="int" name="IALGO">    38</i>
   <i type="int" name="IWAVPR">    11</i>
   <i type="int" name="NBANDS">    44</i>
   <i name="NELECT">     72.00000000</i>
   <i type="int" name="TURBO">     0</i>
   <i type="int" name="IRESTART">     0</i>
   <i type="int" name="NREBOOT">     0</i>
   <i type="int" name="NMIN">     0</i>
   <i name="EREF">      0.00000000</i>
   <separator name="electronic smearing" >
    <i type="int" name="ISMEAR">     0</i>
    <i name="SIGMA">      0.05000000</i>
    <i name="KSPACING">      0.50000000</i>
    <i type="logical" name="KGAMMA"> T  </i>
   </separator>
   <separator name="electronic projectors" >
    <i type="logical" name="LREAL"> F  </i>
    <v name="ROPT">      0.00000000      0.00000000</v>
    <i type="int" name="LMAXPAW">  -100</i>
    <i type="int" name="LMAXMIX">     2</i>
    <i type="logical" name="NLSPLINE"> F  </i>
   </separator>
   <separator name="electronic startup" >
    <i type="int" name="ISTART">     0</i>
    <i type="int" name="ICHARG">     2</i>
    <i type="int" name="INIWAV">     1</i>
   </separator>
   <separator name="electronic spin" >
    <i type="int" name="ISPIN">     1</i>
    <i type="logical" name="LNONCOLLINEAR"> F  </i>
    <v name="MAGMOM">      1.00000000      1.00000000      1.00000000      1.00000000      1.00000000      1.00000000      1.00000000      1.00000000      1.00000000      1.00000000      1.00000000      1.00000000</v>
    <i name="NUPDOWN">     -1.00000000</i>
    <i type="logical" name="LSORBIT"> F  </i>
    <v name="SAXIS">      0.00000000      0.00000000      1.00000000</v>
    <i type="logical" name="LSPIRAL"> F  </i>
    <v name="QSPIRAL">      0.00000000      0.00000000      0.00000000</v>
    <i type="logical" name="LZEROZ"> F  </i>
   </separator>
   <separator name="electronic exchange-correlation" >
    <i type="logical" name="LASPH"> T  </i>
    <i type="logical" name="LMETAGGA"> F  </i>
   </separator>
   <separator name="electronic convergence" >
    <i type="int" name="NELM">    60</i>
    <i type="int" name="NELMDL">     0</i>
    <i type="int" name="NELMIN">     2</i>
    <i name="ENINI">    400.00000000</i>
    <separator name="electronic convergence detail" >
     <i type="logical" name="LDIAG"> T  </i>
     <i type="logical" name="LSUBROT"> F  </i>
     <i name="WEIMIN">      0.00100000</i>
     <i name="EBREAK">      0.00000057</i>
     <i name="DEPER">      0.30000000</i>
     <i type="int" name="NRMM">     4</i>
     <i name="TIME">      0.40000000</i>
    </separator>
   </separator>
   <separator name="electronic mixer" >
    <i name="AMIX">      0.40000000</i>
    <i name="BMIX">      1.00000000</i>
    <i name="AMIN">      0.10000000</i>
    <i name="AMIX_MAG">      1.60000000</i>
    <i name="BMIX_MAG">      1.00000000</i>
    <separator name="electronic mixer details" >
     <i type="int" name="IMIX">     4</i>
     <i type="logical" name="MIXFIRST"> F  </i>
     <i type="int" name="MAXMIX">   -45</i>
     <i name="WC">    100.00000000</i>
     <i type="int" name="INIMIX">     1</i>
     <i type="int" name="MIXPRE">     1</i>
     <i type="int" name="MREMOVE">     5</i>
    </separator>
   </separator>
   <separator name="electronic dipolcorrection" >
    <i type="logical" name="LDIPOL"> T  </i>
    <i type="logical" name="LMONO"> F  </i>
    <i type="int" name="IDIPOL">     3</i>
    <i name="EPSILON">      1.00000000</i>
    <v name="DIPOL">   -100.00000000   -100.00000000   -100.00000000</v>
    <i name="EFIELD">      0.00000000</i>
   </separator>
  </separator>
  <separator name="grids" >
   <i type="int" name="NGX">    24</i>
   <i type="int" name="NGY">    40</i>
   <i type="int" name="NGZ">   240</i>
   <i type="int" name="NGXF">    48</i>
   <i type="int" name="NGYF">    80</i>
   <i type="int" name="NGZF">   480</i>
   <i type="logical" name="ADDGRID"> F  </i>
  </separator>
  <separator name="ionic" >
   <i type="int" name="NSW">  1000</i>
   <i type="int" name="IBRION">     2</i>
   <i type="int" name="MDALGO">     0</i>
   <i type="int" name="ISIF">     3</i>
   <i name="PSTRESS">      0.00000000</i>
   <i name="EDIFFG">      0.00100000</i>
   <i type="int" name="NFREE">     1</i>
   <i name="POTIM">      0.50000000</i>
   <i name="SMASS">     -3.00000000</i>
   <i name="SCALEE">      1.00000000</i>
  </separator>
  <separator name="ionic md" >
   <i name="TEBEG">      0.00010000</i>
   <i name="TEEND">      0.00010000</i>
   <i type="int" name="NBLOCK">     1</i>
   <i type="int" name="KBLOCK">  1000</i>
   <i type="int" name="NPACO">   256</i>
   <i name="APACO">     16.00000000</i>
  </separator>
  <separator name="symmetry" >
   <i type="int" name="ISYM">     2</i>
   <i name="SYMPREC">      0.00001000</i>
  </separator>
  <separator name="dos" >
   <i type="int" name="LORBIT">     0</i>
   <v name="RWIGS">     -1.00000000     -1.00000000</v>
   <i type="int" name="NEDOS">   301</i>
   <i name="EMIN">     10.00000000</i>
   <i name="EMAX">    -10.00000000</i>
   <i name="EFERMI">      0.00000000</i>
  </separator>
  <separator name="writing" >
   <i type="int" name="NWRITE">     1</i>
   <i type="logical" name="LWAVE"> F  </i>
   <i type="logical" name="LDOWNSAMPLE"> F  </i>
   <i type="logical" name="LCHARG"> T  </i>
   <i type="logical" name="LPARD"> F  </i>
   <i type="logical" name="LVTOT"> T  </i>
   <i type="logical" name="LVHAR"> F  </i>
   <i type="logical" name="LELF"> F  </i>
   <i type="logical" name="LOPTICS"> F  </i>
   <v name="STM">      0.00000000      0.00000000      0.00000000      0.00000000      0.00000000      0.00000000      0.00000000</v>
  </separator>
  <separator name="performance" >
   <i type="int" name="NPAR">     4</i>
   <i type="int" name="NSIM">     4</i>
   <i type="int" name="NBLK">    -1</i>
   <i type="logical" name="LPLANE"> T  </i>
   <i type="logical" name="LSCALAPACK"> T  </i>
   <i type="logical" name="LSCAAWARE"> F  </i>
   <i type="logical" name="LSCALU"> F  </i>
   <i type="logical" name="LASYNC"> F  </i>
   <i type="logical" name="LORBITALREAL"> F  </i>
  </separator>
  <separator name="miscellaneous" >
   <i type="int" name="IDIOT">     3</i>
   <i type="int" name="ISPECIAL">     0</i>
   <i type="logical" name="LMUSIC"> F  </i>
   <v name="POMASS">    127.60000000     95.94000000</v>
   <v name="DARWINR">      0.00000000      0.00000000</v>
   <v name="DARWINV">      1.00000000      1.00000000</v>
   <i type="logical" name="LCORR"> T  </i>
  </separator>
  <i type="logical" name="GGA_COMPAT"> T  </i>
  <i type="logical" name="LBERRY"> F  </i>
  <i type="int" name="ICORELEVEL">     0</i>
  <i type="logical" name="LDAU"> F  </i>
  <i type="int" name="I_CONSTRAINED_M">     0</i>
  <separator name="electronic exchange-correlation" >
   <i type="string" name="GGA">--</i>
   <i type="int" name="VOSKOWN">     0</i>
   <i type="logical" name="LHFCALC"> F  </i>
   <i type="string" name="PRECFOCK"></i>
   <i type="logical" name="LSYMGRAD"> F  </i>
   <i type="logical" name="LHFONE"> F  </i>
   <i type="logical" name="LRHFCALC"> F  </i>
   <i type="logical" name="LTHOMAS"> F  </i>
   <i type="logical" name="LMODELHF"> F  </i>
   <i name="ENCUT4O">     -1.00000000</i>
   <i type="int" name="EXXOEP">     0</i>
   <i type="int" name="FOURORBIT">     0</i>
   <i name="AEXX">      0.00000000</i>
   <i name="HFALPHA">      0.00000000</i>
   <i name="MCALPHA">      0.00000000</i>
   <i name="ALDAX">      1.00000000</i>
   <i name="AGGAX">      1.00000000</i>
   <i name="ALDAC">      1.00000000</i>
   <i name="AGGAC">      1.00000000</i>
   <i type="int" name="NKREDX">     1</i>
   <i type="int" name="NKREDY">     1</i>
   <i type="int" name="NKREDZ">     1</i>
   <i type="logical" name="SHIFTRED"> F  </i>
   <i type="logical" name="ODDONLY"> F  </i>
   <i type="logical" name="EVENONLY"> F  </i>
   <i type="int" name="LMAXFOCK">     0</i>
   <i type="int" name="NMAXFOCKAE">     0</i>
   <i type="logical" name="LFOCKAEDFT"> F  </i>
   <i name="HFSCREEN">      0.00000000</i>
   <i name="HFSCREENC">      0.00000000</i>
   <i type="int" name="NBANDSGWLOW">     0</i>
  </separator>
  <separator name="vdW DFT" >
   <i type="logical" name="LUSE_VDW"> T  </i>
   <i name="Zab_VDW">     -0.84910000</i>
   <i name="PARAM1">      0.12340000</i>
   <i name="PARAM2">      1.00000000</i>
   <i name="PARAM3">      0.00000000</i>
  </separator>
  <separator name="model GW" >
   <i type="int" name="MODEL_GW">     0</i>
   <i name="MODEL_EPS0">     37.46624939</i>
   <i name="MODEL_ALPHA">      1.00000000</i>
  </separator>
  <separator name="linear response parameters" >
   <i type="logical" name="LEPSILON"> F  </i>
   <i type="logical" name="LRPA"> F  </i>
   <i type="logical" name="LNABLA"> F  </i>
   <i type="logical" name="LVEL"> F  </i>
   <i type="int" name="KINTER">     0</i>
   <i name="CSHIFT">      0.10000000</i>
   <i name="OMEGAMAX">     -1.00000000</i>
   <i name="DEG_THRESHOLD">      0.00200000</i>
   <i name="RTIME">     -0.10000000</i>
   <i name="WPLASMAI">      0.00000000</i>
   <v name="DFIELD">      0.00000000      0.00000000      0.00000000</v>
   <v name="WPLASMA">      0.00000000      0.00000000      0.00000000      0.00000000      0.00000000      0.00000000      0.00000000      0.00000000      0.00000000</v>
  </separator>
  <separator name="orbital magnetization" >
   <i type="logical" name="NUCIND"> F  </i>
   <v name="MAGPOS">      0.00000000      0.00000000      0.00000000</v>
   <i type="logical" name="LNICSALL"> T  </i>
   <i type="logical" name="ORBITALMAG"> F  </i>
   <i type="logical" name="LMAGBLOCH"> F  </i>
   <i type="logical" name="LCHIMAG"> F  </i>
   <i type="logical" name="LGAUGE"> T  </i>
   <i type="int" name="MAGATOM">     0</i>
   <v name="MAGDIPOL">      0.00000000      0.00000000      0.00000000</v>
   <v name="AVECCONST">      0.00000000      0.00000000      0.00000000</v>
  </separator>
  <separator name="response functions" >
   <i type="logical" name="LADDER"> F  </i>
   <i type="logical" name="LRPAFORCE"> F  </i>
   <i type="logical" name="LFXC"> F  </i>
   <i type="logical" name="LHARTREE"> T  </i>
   <i type="int" name="IBSE">     0</i>
   <v type="int" name="KPOINT">    -1     0     0     0</v>
   <i type="logical" name="LTCTE"> F  </i>
   <i type="logical" name="LTETE"> F  </i>
   <i type="logical" name="LTRIPLET"> F  </i>
   <i type="logical" name="LFXCEPS"> F  </i>
   <i type="logical" name="LFXHEG"> F  </i>
   <i type="int" name="NATURALO">     2</i>
   <i type="logical" name="L2ORDER"> F  </i>
   <i type="logical" name="LMP2LT"> F  </i>
   <i type="logical" name="LUSEW"> F  </i>
   <i name="ENCUTGW">     -2.00000000</i>
   <i name="ENCUTGWSOFT">     -2.00000000</i>
   <i name="ENCUTLF">     -1.00000000</i>
   <i type="int" name="LMAXMP2">    -1</i>
   <i name="SCISSOR">      0.00000000</i>
   <i type="int" name="NOMEGA">     0</i>
   <i type="int" name="NOMEGAR">     0</i>
   <i type="int" name="NBANDSGW">    -1</i>
   <i type="int" name="NBANDSO">    -1</i>
   <i type="int" name="NBANDSV">    -1</i>
   <i type="int" name="NELM">     1</i>
   <i type="int" name="NELMHF">     1</i>
   <i type="int" name="DIM">     3</i>
   <i type="int" name="ANTIRES">     0</i>
   <i name="OMEGAMAX">    -30.00000000</i>
   <i name="OMEGAMIN">    -30.00000000</i>
   <i name="OMEGATL">   -200.00000000</i>
   <i type="int" name="OMEGAGRID">   140</i>
   <i name="CSHIFT">     -0.10000000</i>
   <i type="logical" name="SELFENERGY"> F  </i>
   <i type="logical" name="LSPECTRAL"> F  </i>
   <i type="logical" name="LSPECTRALGW"> F  </i>
   <i type="logical" name="LSINGLES"> F  </i>
   <i type="logical" name="LFERMIGW"> F  </i>
   <i type="logical" name="ODDONLYGW"> F  </i>
   <i type="logical" name="EVENONLYGW"> F  </i>
   <i type="int" name="NKREDLFX">     1</i>
   <i type="int" name="NKREDLFY">     1</i>
   <i type="int" name="NKREDLFZ">     1</i>
   <i type="int" name="MAXMEM">  2800</i>
   <i type="int" name="TELESCOPE">     0</i>
   <i type="int" name="TAUPAR">     1</i>
   <i type="int" name="OMEGAPAR">    -1</i>
   <i name="LAMBDA">      1.00000000</i>
  </separator>
  <separator name="External order field" >
   <i name="OFIELD_KAPPA">      0.00000000</i>
   <v name="OFIELD_K">      0.00000000      0.00000000      0.00000000</v>
   <i name="OFIELD_Q6_NEAR">      0.00000000</i>
   <i name="OFIELD_Q6_FAR">      0.00000000</i>
   <i name="OFIELD_A">      0.00000000</i>
  </separator>
 </parameters>
 <atominfo>
  <atoms>      12 </atoms>
  <types>       2 </types>
  <array name="atoms" >
   <dimension dim="1">ion</dimension>
   <field type="string">element</field>
   <field type="int">atomtype</field>
   <set>
    <rc><c>Te</c><c>   1</c></rc>
    <rc><c>Te</c><c>   1</c></rc>
    <rc><c>Te</c><c>   1</c></rc>
    <rc><c>Te</c><c>   1</c></rc>
    <rc><c>Te</c><c>   1</c></rc>
    <rc><c>Te</c><c>   1</c></rc>
    <rc><c>Te</c><c>   1</c></rc>
    <rc><c>Te</c><c>   1</c></rc>
    <rc><c>Mo</c><c>   2</c></rc>
    <rc><c>Mo</c><c>   2</c></rc>
    <rc><c>Mo</c><c>   2</c></rc>
    <rc><c>Mo</c><c>   2</c></rc>
   </set>
  </array>
  <array name="atomtypes" >
   <dimension dim="1">type</dimension>
   <field type="int">atomspertype</field>
   <field type="string">element</field>
   <field>mass</field>
   <field>valence</field>
   <field type="string">pseudopotential</field>
   <set>
    <rc><c>   8</c><c>Te</c><c>    127.60000000</c><c>      6.00000000</c><c>  PAW_PBE Te 08Apr2002                  </c></rc>
    <rc><c>   4</c><c>Mo</c><c>     95.94000000</c><c>      6.00000000</c><c>  PAW_PBE Mo 08Apr2002                  </c></rc>
   </set>
  </array>
 </atominfo>
 <structure name="initialpos" >
  <crystal>
   <varray name="basis" >
    <v>       3.51577700       0.00000000       0.00000000 </v>
    <v>       0.00000000       6.08948900       0.00000000 </v>
    <v>       0.00000000       0.00000000      35.00000000 </v>
   </varray>
   <i name="volume">    749.32498788 </i>
   <varray name="rec_basis" >
    <v>       0.28443215       0.00000000       0.00000000 </v>
    <v>       0.00000000       0.16421739       0.00000000 </v>
    <v>       0.00000000       0.00000000       0.02857143 </v>
   </varray>
  </crystal>
  <varray name="positions" >
   <v>       0.00000000       0.66666667       0.16132393 </v>
   <v>       0.00000000       0.66666667       0.05791385 </v>
   <v>       0.50000000       0.16666667       0.16132393 </v>
   <v>       0.50000000       0.16666667       0.05791385 </v>
   <v>       0.00000000       0.33333333       0.38056172 </v>
   <v>       0.00000000       0.33333333       0.27715164 </v>
   <v>       0.50000000       0.83333333       0.38056172 </v>
   <v>       0.50000000       0.83333333       0.27715164 </v>
   <v>       0.00000000       0.00000000       0.10961889 </v>
   <v>       0.50000000       0.50000000       0.10961889 </v>
   <v>       0.00000000       0.00000000       0.32885668 </v>
   <v>       0.50000000       0.50000000       0.32885668 </v>
  </varray>
 </structure>
 <calculation>
  <scstep>
   <time name="dav">   10.01   10.01</time>
   <time name="total">   12.58   12.60</time>
   <dipole>
    <v name="dipole">      0.00000000       0.00000000      -0.00011737 </v>
    <i name="Tr[quadrupol]">   -315.03027974 </i>
    <i name="Echarged">      0.00000000 </i>
    <i name="Edipol_quadrupol">      0.00000000 </i>
    <i name="Eion">      0.00000000 </i>
   </dipole>
   <energy>
    <i name="alphaZ">     47.30217199 </i>
    <i name="ewald">  19836.44973923 </i>
    <i name="hartreedc"> -22365.54178978 </i>
    <i name="XCdc">   -355.89011825 </i>
    <i name="pawpsdc">   2633.27012201 </i>
    <i name="pawaedc">  -2474.01667568 </i>
    <i name="eentropy">     -0.00848567 </i>
    <i name="bandstr">    120.50352231 </i>
    <i name="atom">   2656.22846841 </i>
    <i name="e_fr_energy">     98.29695456 </i>
    <i name="e_wo_entrp">     98.30544022 </i>
    <i name="e_0_energy">     98.30119739 </i>
   </energy>
  </scstep>
  <scstep>
   <time name="dav">   12.61   12.70</time>
   <time name="total">   12.61   12.70</time>
   <dipole>
    <v name="dipole">      0.00000000       0.00000000      -0.00011737 </v>
    <i name="Tr[quadrupol]">   -315.03027974 </i>
    <i name="Echarged">      0.00000000 </i>
    <i name="Edipol_quadrupol">      0.00000000 </i>
    <i name="Eion">      0.00000000 </i>
   </dipole>
   <energy>
    <i name="e_fr_energy">   -377.59444998 </i>
    <i name="e_wo_entrp">   -377.59257279 </i>
    <i name="e_0_energy">   -377.59351138 </i>
   </energy>
  </scstep>
  <scstep>
   <time name="dav">   11.11   11.11</time>
   <time name="total">   11.11   11.11</time>
   <dipole>
    <v name="dipole">      0.00000000       0.00000000      -0.00011737 </v>
    <i name="Tr[quadrupol]">   -315.03027974 </i>
    <i name="Echarged">      0.00000000 </i>
    <i name="Edipol_quadrupol">      0.00000000 </i>
    <i name="Eion">      0.00000000 </i>
   </dipole>
   <energy>
    <i name="e_fr_energy">   -432.99317137 </i>
    <i name="e_wo_entrp">   -432.99317137 </i>
    <i name="e_0_energy">   -432.99317137 </i>
   </energy>
  </scstep>
  <scstep>
   <time name="dav">   13.59   13.59</time>
   <time name="total">   13.59   13.59</time>
   <dipole>
    <v name="dipole">      0.00000000       0.00000000      -0.00011737 </v>
    <i name="Tr[quadrupol]">   -315.03027974 </i>
    <i name="Echarged">      0.00000000 </i>
    <i name="Edipol_quadrupol">      0.00000000 </i>
    <i name="Eion">      0.00000000 </i>
   </dipole>
   <energy>
    <i name="e_fr_energy">   -436.14140308 </i>
    <i name="e_wo_entrp">   -436.14140308 </i>
    <i name="e_0_energy">   -436.14140308 </i>
   </energy>
  </scstep>
  <scstep>
   <time name="dav">   13.18   13.25</time>
   <time name="total">   14.99   15.06</time>
   <dipole>
    <v name="dipole">      0.00000000       0.00000000      -0.00011737 </v>
    <i name="Tr[quadrupol]">   -315.03027974 </i>
    <i name="Echarged">      0.00000000 </i>
    <i name="Edipol_quadrupol">      0.00000000 </i>
    <i name="Eion">      0.00000000 </i>
   </dipole>
   <energy>
    <i name="e_fr_energy">   -436.21476822 </i>
    <i name="e_wo_entrp">   -436.21476822 </i>
    <i name="e_0_energy">   -436.21476822 </i>
   </energy>
  </scstep>
  <scstep>
   <time name="dav">   11.23   11.22</time>
   <time name="total">   15.50   15.50</time>
   <dipole>
    <v name="dipole">      0.00000000       0.00000000      -0.00026830 </v>
    <i name="Tr[quadrupol]">   -315.61420095 </i>
    <i name="Echarged">      0.00000000 </i>
    <i name="Edipol_quadrupol">      0.00000000 </i>
    <i name="Eion">      0.00000000 </i>
   </dipole>
   <energy>
    <i name="e_fr_energy">   -439.80846871 </i>
    <i name="e_wo_entrp">   -439.80846871 </i>
    <i name="e_0_energy">   -439.80846871 </i>
   </energy>
  </scstep>
  <scstep>
   <time name="dav">   11.42   11.44</time>
   <time name="total">   15.73   15.75</time>
   <dipole>
    <v name="dipole">      0.00000000       0.00000000      -0.00011150 </v>
    <i name="Tr[quadrupol]">   -317.21680774 </i>
    <i name="Echarged">      0.00000000 </i>
    <i name="Edipol_quadrupol">      0.00000000 </i>
    <i name="Eion">      0.00000000 </i>
   </dipole>
   <energy>
    <i name="e_fr_energy">   -439.45422592 </i>
    <i name="e_wo_entrp">   -439.45422592 </i>
    <i name="e_0_energy">   -439.45422592 </i>
   </energy>
  </scstep>
  <scstep>
   <time name="dav">   12.20   12.20</time>
   <time name="total">   16.51   16.51</time>
   <dipole>
    <v name="dipole">      0.00000000       0.00000000       0.00002104 </v>
    <i name="Tr[quadrupol]">   -317.16987446 </i>
    <i name="Echarged">      0.00000000 </i>
    <i name="Edipol_quadrupol">      0.00000000 </i>
    <i name="Eion">      0.00000000 </i>
   </dipole>
   <energy>
    <i name="e_fr_energy">   -439.01102570 </i>
    <i name="e_wo_entrp">   -439.01102570 </i>
    <i name="e_0_energy">   -439.01102570 </i>
   </energy>
  </scstep>
  <scstep>
   <time name="dav">   11.81   11.81</time>
   <time name="total">   16.18   16.19</time>
   <dipole>
    <v name="dipole">      0.00000000       0.00000000       0.00018305 </v>
    <i name="Tr[quadrupol]">   -317.26474031 </i>
    <i name="Echarged">      0.00000000 </i>
    <i name="Edipol_quadrupol">      0.00000000 </i>
    <i name="Eion">      0.00000000 </i>
   </dipole>
   <energy>
    <i name="e_fr_energy">   -438.97234412 </i>
    <i name="e_wo_entrp">   -438.97234412 </i>
    <i name="e_0_energy">   -438.97234412 </i>
   </energy>
  </scstep>
  <scstep>
   <time name="dav">   12.58   12.59</time>
   <time name="total">   16.94   16.96</time>
   <dipole>
    <v name="dipole">      0.00000000       0.00000000       0.00005613 </v>
    <i name="Tr[quadrupol]">   -317.44768653 </i>
    <i name="Echarged">      0.00000000 </i>
    <i name="Edipol_quadrupol">      0.00000000 </i>
    <i name="Eion">      0.00000000 </i>
   </dipole>
   <energy>
    <i name="e_fr_energy">   -438.96123109 </i>
    <i name="e_wo_entrp">   -438.96123109 </i>
    <i name="e_0_energy">   -438.96123109 </i>
   </energy>
  </scstep>
  <scstep>
   <time name="dav">   12.45   12.45</time>
   <time name="total">   16.75   16.75</time>
   <dipole>
    <v name="dipole">      0.00000000       0.00000000       0.00005620 </v>
    <i name="Tr[quadrupol]">   -317.46133800 </i>
    <i name="Echarged">      0.00000000 </i>
    <i name="Edipol_quadrupol">      0.00000000 </i>
    <i name="Eion">      0.00000000 </i>
   </dipole>
   <energy>
    <i name="e_fr_energy">   -438.99411065 </i>
    <i name="e_wo_entrp">   -438.99411065 </i>
    <i name="e_0_energy">   -438.99411065 </i>
   </energy>
  </scstep>
  <scstep>
   <time name="dav">   12.69   12.71</time>
   <time name="total">   16.99   17.01</time>
   <dipole>
    <v name="dipole">      0.00000000       0.00000000       0.00006178 </v>
    <i name="Tr[quadrupol]">   -317.50748339 </i>
    <i name="Echarged">      0.00000000 </i>
    <i name="Edipol_quadrupol">      0.00000000 </i>
    <i name="Eion">      0.00000000 </i>
   </dipole>
   <energy>
    <i name="e_fr_energy">   -438.97949995 </i>
    <i name="e_wo_entrp">   -438.97949995 </i>
    <i name="e_0_energy">   -438.97949995 </i>
   </energy>
  </scstep>
  <scstep>
   <time name="dav">   12.62   12.63</time>
   <time name="total">   16.91   16.92</time>
   <dipole>
    <v name="dipole">      0.00000000       0.00000000      -0.00882556 </v>
    <i name="Tr[quadrupol]">   -317.68343233 </i>
    <i name="Echarged">      0.00000000 </i>
    <i name="Edipol_quadrupol">      0.00000000 </i>
    <i name="Eion">      0.00000000 </i>
   </dipole>
   <energy>
    <i name="e_fr_energy">   -438.95695890 </i>
    <i name="e_wo_entrp">   -438.95695890 </i>
    <i name="e_0_energy">   -438.95695890 </i>
   </energy>
  </scstep>
  <scstep>
   <time name="dav">   11.98   12.00</time>
   <time name="total">   16.30   16.32</time>
   <dipole>
    <v name="dipole">      0.00000000       0.00000000      -0.01599303 </v>
    <i name="Tr[quadrupol]">   -317.73763554 </i>
    <i name="Echarged">      0.00000000 </i>
    <i name="Edipol_quadrupol">      0.00000000 </i>
    <i name="Eion">      0.00000000 </i>
   </dipole>
   <energy>
    <i name="e_fr_energy">   -438.97589860 </i>
    <i name="e_wo_entrp">   -438.97589860 </i>
    <i name="e_0_energy">   -438.97589860 </i>
   </energy>
  </scstep>
  <scstep>
   <time name="dav">   13.35   13.35</time>
   <time name="total">   17.67   17.67</time>
   <dipole>
    <v name="dipole">      0.00000000       0.00000000      -0.02026449 </v>
    <i name="Tr[quadrupol]">   -317.88678590 </i>
    <i name="Echarged">      0.00000000 </i>
    <i name="Edipol_quadrupol">      0.00000000 </i>
    <i name="Eion">      0.00000000 </i>
   </dipole>
   <energy>
    <i name="e_fr_energy">   -438.98324583 </i>
    <i name="e_wo_entrp">   -438.98324583 </i>
    <i name="e_0_energy">   -438.98324583 </i>
   </energy>
  </scstep>
  <scstep>
   <time name="dav">   13.05   13.07</time>
   <time name="total">   17.37   17.39</time>
   <dipole>
    <v name="dipole">      0.00000000       0.00000000       0.00015002 </v>
    <i name="Tr[quadrupol]">   -318.04780561 </i>
    <i name="Echarged">      0.00000000 </i>
    <i name="Edipol_quadrupol">      0.00000000 </i>
    <i name="Eion">      0.00000000 </i>
   </dipole>
   <energy>
    <i name="e_fr_energy">   -438.96761346 </i>
    <i name="e_wo_entrp">   -438.96761346 </i>
    <i name="e_0_energy">   -438.96761346 </i>
   </energy>
  </scstep>
  <scstep>
   <time name="dav">   12.91   12.91</time>
   <time name="total">   17.57   17.60</time>
   <dipole>
    <v name="dipole">      0.00000000       0.00000000       0.00960491 </v>
    <i name="Tr[quadrupol]">   -318.07569978 </i>
    <i name="Echarged">      0.00000000 </i>
    <i name="Edipol_quadrupol">      0.00000000 </i>
    <i name="Eion">      0.00000000 </i>
   </dipole>
   <energy>
    <i name="e_fr_energy">   -438.95651815 </i>
    <i name="e_wo_entrp">   -438.95651815 </i>
    <i name="e_0_energy">   -438.95651815 </i>
   </energy>
  </scstep>
  <scstep>
   <time name="dav">   12.08   12.10</time>
   <time name="total">   16.42   16.44</time>
   <dipole>
    <v name="dipole">      0.00000000       0.00000000      -0.00449168 </v>
    <i name="Tr[quadrupol]">   -318.11519329 </i>
    <i name="Echarged">      0.00000000 </i>
    <i name="Edipol_quadrupol">      0.00000000 </i>
    <i name="Eion">      0.00000000 </i>
   </dipole>
   <energy>
    <i name="e_fr_energy">   -438.95405606 </i>
    <i name="e_wo_entrp">   -438.95405606 </i>
    <i name="e_0_energy">   -438.95405606 </i>
   </energy>
  </scstep>
  <scstep>
   <time name="dav">   12.38   12.38</time>
   <time name="total">   16.74   16.75</time>
   <dipole>
    <v name="dipole">      0.00000000       0.00000000      -0.00924591 </v>
    <i name="Tr[quadrupol]">   -318.21772195 </i>
    <i name="Echarged">      0.00000000 </i>
    <i name="Edipol_quadrupol">      0.00000000 </i>
    <i name="Eion">      0.00000000 </i>
   </dipole>
   <energy>
    <i name="e_fr_energy">   -438.95320767 </i>
    <i name="e_wo_entrp">   -438.95320767 </i>
    <i name="e_0_energy">   -438.95320767 </i>
   </energy>
  </scstep>
  <scstep>
   <time name="dav">   13.12   13.12</time>
   <time name="total">   17.44   17.46</time>
   <dipole>
    <v name="dipole">      0.00000000       0.00000000      -0.01094201 </v>
    <i name="Tr[quadrupol]">   -318.22930982 </i>
    <i name="Echarged">      0.00000000 </i>
    <i name="Edipol_quadrupol">      0.00000000 </i>
    <i name="Eion">      0.00000000 </i>
   </dipole>
   <energy>
    <i name="e_fr_energy">   -438.95198160 </i>
    <i name="e_wo_entrp">   -438.95198160 </i>
    <i name="e_0_energy">   -438.95198160 </i>
   </energy>
  </scstep>
  <scstep>
   <time name="dav">    9.72    9.72</time>
   <time name="total">   14.05   14.05</time>
   <dipole>
    <v name="dipole">      0.00000000       0.00000000      -0.01113241 </v>
    <i name="Tr[quadrupol]">   -318.23610182 </i>
    <i name="Echarged">      0.00000000 </i>
    <i name="Edipol_quadrupol">      0.00000000 </i>
    <i name="Eion">      0.00000000 </i>
   </dipole>
   <energy>
    <i name="e_fr_energy">   -438.95156243 </i>
    <i name="e_wo_entrp">   -438.95156243 </i>
    <i name="e_0_energy">   -438.95156243 </i>
   </energy>
  </scstep>
  <scstep>
   <time name="dav">   11.95   11.95</time>
   <time name="total">   16.33   16.35</time>
   <dipole>
    <v name="dipole">      0.00000000       0.00000000      -0.00835694 </v>
    <i name="Tr[quadrupol]">   -318.26325045 </i>
    <i name="Echarged">      0.00000000 </i>
    <i name="Edipol_quadrupol">      0.00000000 </i>
    <i name="Eion">      0.00000000 </i>
   </dipole>
   <energy>
    <i name="e_fr_energy">   -438.95112596 </i>
    <i name="e_wo_entrp">   -438.95112596 </i>
    <i name="e_0_energy">   -438.95112596 </i>
   </energy>
  </scstep>
  <scstep>
   <time name="dav">   10.74   10.74</time>
   <time name="total">   13.18   13.19</time>
   <dipole>
    <v name="dipole">      0.00000000       0.00000000      -0.00031232 </v>
    <i name="Tr[quadrupol]">   -318.27555501 </i>
    <i name="Echarged">      0.00000000 </i>
    <i name="Edipol_quadrupol">      0.00000000 </i>
    <i name="Eion">      0.00000000 </i>
   </dipole>
   <energy>
    <i name="alphaZ">     47.29751858 </i>
    <i name="ewald">  19836.44973923 </i>
    <i name="hartreedc"> -22404.12591060 </i>
    <i name="XCdc">   -372.72261401 </i>
    <i name="pawpsdc">   5266.32051426 </i>
    <i name="pawaedc">  -5116.43565083 </i>
    <i name="eentropy">     -0.00000000 </i>
    <i name="bandstr">   -351.96319119 </i>
    <i name="atom">   2656.22846841 </i>
    <i name="e_fr_energy">   -438.95112615 </i>
    <i name="e_wo_entrp">   -438.95112615 </i>
    <i name="e_0_energy">   -438.95112615 </i>
   </energy>
  </scstep>
  <structure>
   <crystal>
    <varray name="basis" >
     <v>       3.51577700       0.00000000       0.00000000 </v>
     <v>       0.00000000       6.08948900       0.00000000 </v>
     <v>       0.00000000       0.00000000      35.00000000 </v>
    </varray>
    <i name="volume">    749.32498788 </i>
    <varray name="rec_basis" >
     <v>       0.28443215       0.00000000       0.00000000 </v>
     <v>       0.00000000       0.16421739       0.00000000 </v>
     <v>       0.00000000       0.00000000       0.02857143 </v>
    </varray>
   </crystal>
   <varray name="positions" >
    <v>       0.00000000       0.66666667       0.16132393 </v>
    <v>       0.00000000       0.66666667       0.05791385 </v>
    <v>       0.50000000       0.16666667       0.16132393 </v>
    <v>       0.50000000       0.16666667       0.05791385 </v>
    <v>       0.00000000       0.33333333       0.38056172 </v>
    <v>       0.00000000       0.33333333       0.27715164 </v>
    <v>       0.50000000       0.83333333       0.38056172 </v>
    <v>       0.50000000       0.83333333       0.27715164 </v>
    <v>       0.00000000       0.00000000       0.10961889 </v>
    <v>       0.50000000       0.50000000       0.10961889 </v>
    <v>       0.00000000       0.00000000       0.32885668 </v>
    <v>       0.50000000       0.50000000       0.32885668 </v>
   </varray>
  </structure>
  <varray name="forces" >
   <v>      -0.00000000      -0.00013579      -0.18078403 </v>
   <v>      -0.00000000      -0.00002801       0.24730196 </v>
   <v>      -0.00000000      -0.00013579      -0.18078403 </v>
   <v>       0.00000000      -0.00002801       0.24730196 </v>
   <v>      -0.00000000       0.00002801      -0.24730196 </v>
   <v>      -0.00000000       0.00013579       0.18078403 </v>
   <v>      -0.00000000       0.00002801      -0.24730196 </v>
   <v>      -0.00000000       0.00013579       0.18078403 </v>
   <v>      -0.00000000      -0.00003493      -0.00427646 </v>
   <v>       0.00000000      -0.00003493      -0.00427646 </v>
   <v>      -0.00000000       0.00003493       0.00427646 </v>
   <v>      -0.00000000       0.00003493       0.00427646 </v>
  </varray>
  <varray name="stress" >
   <v>      -6.65662870       0.00000000       0.00000000 </v>
   <v>       0.00000000      -6.67491877       0.00035258 </v>
   <v>       0.00000000       0.00034917     -10.88833536 </v>
  </varray>
  <energy>
   <i name="e_fr_energy">   -438.95112615 </i>
   <i name="e_wo_entrp">   -438.95112615 </i>
   <i name="e_0_energy">     -0.00000000 </i>
  </energy>
  <time name="totalsc">  398.86  399.88</time>
 </calculation>
 <calculation>
  <scstep>
   <time name="dav">   10.06   10.06</time>
   <time name="total">   14.36   14.37</time>
   <dipole>
    <v name="dipole">      0.00000000       0.00000000       0.00460509 </v>
    <i name="Tr[quadrupol]">   -311.43629359 </i>
    <i name="Echarged">      0.00000000 </i>
    <i name="Edipol_quadrupol">      0.00000000 </i>
    <i name="Eion">      0.00000000 </i>
   </dipole>
   <energy>
    <i name="alphaZ">     49.51986856 </i>
    <i name="ewald">  19932.97909997 </i>
    <i name="hartreedc"> -22545.58779482 </i>
    <i name="XCdc">   -371.10246818 </i>
    <i name="pawpsdc">   5265.75695042 </i>
    <i name="pawaedc">  -5115.87389714 </i>
    <i name="eentropy">     -0.00000000 </i>
    <i name="bandstr">   -311.12646293 </i>
    <i name="atom">   2656.22846841 </i>
    <i name="e_fr_energy">   -439.20623571 </i>
    <i name="e_wo_entrp">   -439.20623571 </i>
    <i name="e_0_energy">   -439.20623571 </i>
   </energy>
  </scstep>
  <scstep>
   <time name="dav">   11.18   11.21</time>
   <time name="total">   15.54   15.56</time>
   <dipole>
    <v name="dipole">      0.00000000       0.00000000       0.00248394 </v>
    <i name="Tr[quadrupol]">   -310.85627608 </i>
    <i name="Echarged">      0.00000000 </i>
    <i name="Edipol_quadrupol">      0.00000000 </i>
    <i name="Eion">      0.00000000 </i>
   </dipole>
   <energy>
    <i name="e_fr_energy">   -438.94136513 </i>
    <i name="e_wo_entrp">   -438.94136513 </i>
    <i name="e_0_energy">   -438.94136513 </i>
   </energy>
  </scstep>
  <scstep>
   <time name="dav">   11.16   11.17</time>
   <time name="total">   15.50   15.50</time>
   <dipole>
    <v name="dipole">      0.00000000       0.00000000       0.00013499 </v>
    <i name="Tr[quadrupol]">   -310.75767231 </i>
    <i name="Echarged">      0.00000000 </i>
    <i name="Edipol_quadrupol">      0.00000000 </i>
    <i name="Eion">      0.00000000 </i>
   </dipole>
   <energy>
    <i name="e_fr_energy">   -438.86411259 </i>
    <i name="e_wo_entrp">   -438.86411259 </i>
    <i name="e_0_energy">   -438.86411259 </i>
   </energy>
  </scstep>
  <scstep>
   <time name="dav">   10.84   10.86</time>
   <time name="total">   15.17   15.20</time>
   <dipole>
    <v name="dipole">      0.00000000      -0.00000000      -0.00000339 </v>
    <i name="Tr[quadrupol]">   -310.59247414 </i>
    <i name="Echarged">      0.00000000 </i>
    <i name="Edipol_quadrupol">      0.00000000 </i>
    <i name="Eion">      0.00000000 </i>
   </dipole>
   <energy>
    <i name="e_fr_energy">   -438.85421583 </i>
    <i name="e_wo_entrp">   -438.85421583 </i>
    <i name="e_0_energy">   -438.85421583 </i>
   </energy>
  </scstep>
  <scstep>
   <time name="dav">   11.75   11.75</time>
   <time name="total">   16.11   16.10</time>
   <dipole>
    <v name="dipole">      0.00000000       0.00000000       0.00015930 </v>
    <i name="Tr[quadrupol]">   -310.35458741 </i>
    <i name="Echarged">      0.00000000 </i>
    <i name="Edipol_quadrupol">      0.00000000 </i>
    <i name="Eion">      0.00000000 </i>
   </dipole>
   <energy>
    <i name="e_fr_energy">   -438.84118274 </i>
    <i name="e_wo_entrp">   -438.84118274 </i>
    <i name="e_0_energy">   -438.84118274 </i>
   </energy>
  </scstep>
  <scstep>
   <time name="dav">   12.22   12.24</time>
   <time name="total">   16.56   16.58</time>
   <dipole>
    <v name="dipole">      0.00000000       0.00000000       0.00467732 </v>
    <i name="Tr[quadrupol]">   -310.23343281 </i>
    <i name="Echarged">      0.00000000 </i>
    <i name="Edipol_quadrupol">      0.00000000 </i>
    <i name="Eion">      0.00000000 </i>
   </dipole>
   <energy>
    <i name="e_fr_energy">   -438.84055940 </i>
    <i name="e_wo_entrp">   -438.84055940 </i>
    <i name="e_0_energy">   -438.84055940 </i>
   </energy>
  </scstep>
  <scstep>
   <time name="dav">   11.14   11.14</time>
   <time name="total">   15.48   15.48</time>
   <dipole>
    <v name="dipole">      0.00000000      -0.00000000      -0.00230253 </v>
    <i name="Tr[quadrupol]">   -309.95241813 </i>
    <i name="Echarged">      0.00000000 </i>
    <i name="Edipol_quadrupol">      0.00000000 </i>
    <i name="Eion">      0.00000000 </i>
   </dipole>
   <energy>
    <i name="e_fr_energy">   -438.83909307 </i>
    <i name="e_wo_entrp">   -438.83909307 </i>
    <i name="e_0_energy">   -438.83909307 </i>
   </energy>
  </scstep>
  <scstep>
   <time name="dav">   13.76   13.78</time>
   <time name="total">   18.06   18.09</time>
   <dipole>
    <v name="dipole">      0.00000000       0.00000000       0.00541179 </v>
    <i name="Tr[quadrupol]">   -309.88980864 </i>
    <i name="Echarged">      0.00000000 </i>
    <i name="Edipol_quadrupol">      0.00000000 </i>
    <i name="Eion">      0.00000000 </i>
   </dipole>
   <energy>
    <i name="e_fr_energy">   -438.83926256 </i>
    <i name="e_wo_entrp">   -438.83926256 </i>
    <i name="e_0_energy">   -438.83926256 </i>
   </energy>
  </scstep>
  <scstep>
   <time name="dav">    9.91    9.91</time>
   <time name="total">   14.23   14.23</time>
   <dipole>
    <v name="dipole">      0.00000000      -0.00000000      -0.00339819 </v>
    <i name="Tr[quadrupol]">   -309.79611998 </i>
    <i name="Echarged">      0.00000000 </i>
    <i name="Edipol_quadrupol">      0.00000000 </i>
    <i name="Eion">      0.00000000 </i>
   </dipole>
   <energy>
    <i name="e_fr_energy">   -438.83992240 </i>
    <i name="e_wo_entrp">   -438.83992240 </i>
    <i name="e_0_energy">   -438.83992240 </i>
   </energy>
  </scstep>
  <scstep>
   <time name="dav">   10.23   10.50</time>
   <time name="total">   14.55   14.83</time>
   <dipole>
    <v name="dipole">      0.00000000       0.00000000       0.00491236 </v>
    <i name="Tr[quadrupol]">   -309.70918459 </i>
    <i name="Echarged">      0.00000000 </i>
    <i name="Edipol_quadrupol">      0.00000000 </i>
    <i name="Eion">      0.00000000 </i>
   </dipole>
   <energy>
    <i name="e_fr_energy">   -438.84044848 </i>
    <i name="e_wo_entrp">   -438.84044848 </i>
    <i name="e_0_energy">   -438.84044848 </i>
   </energy>
  </scstep>
  <scstep>
   <time name="dav">    9.67    9.67</time>
   <time name="total">   13.97   13.98</time>
   <dipole>
    <v name="dipole">      0.00000000      -0.00000000      -0.00308358 </v>
    <i name="Tr[quadrupol]">   -309.65031822 </i>
    <i name="Echarged">      0.00000000 </i>
    <i name="Edipol_quadrupol">      0.00000000 </i>
    <i name="Eion">      0.00000000 </i>
   </dipole>
   <energy>
    <i name="e_fr_energy">   -438.84080355 </i>
    <i name="e_wo_entrp">   -438.84080355 </i>
    <i name="e_0_energy">   -438.84080355 </i>
   </energy>
  </scstep>
  <scstep>
   <time name="dav">    9.00    9.07</time>
   <time name="total">   13.31   13.38</time>
   <dipole>
    <v name="dipole">      0.00000000      -0.00000000      -0.00659167 </v>
    <i name="Tr[quadrupol]">   -309.61829234 </i>
    <i name="Echarged">      0.00000000 </i>
    <i name="Edipol_quadrupol">      0.00000000 </i>
    <i name="Eion">      0.00000000 </i>
   </dipole>
   <energy>
    <i name="e_fr_energy">   -438.84098174 </i>
    <i name="e_wo_entrp">   -438.84098174 </i>
    <i name="e_0_energy">   -438.84098174 </i>
   </energy>
  </scstep>
  <scstep>
   <time name="dav">    8.95    8.95</time>
   <time name="total">   13.27   13.28</time>
   <dipole>
    <v name="dipole">      0.00000000      -0.00000000      -0.00607482 </v>
    <i name="Tr[quadrupol]">   -309.57809057 </i>
    <i name="Echarged">      0.00000000 </i>
    <i name="Edipol_quadrupol">      0.00000000 </i>
    <i name="Eion">      0.00000000 </i>
   </dipole>
   <energy>
    <i name="e_fr_energy">   -438.84115146 </i>
    <i name="e_wo_entrp">   -438.84115146 </i>
    <i name="e_0_energy">   -438.84115146 </i>
   </energy>
  </scstep>
  <scstep>
   <time name="dav">    8.15    8.15</time>
   <time name="total">   10.63   10.64</time>
   <dipole>
    <v name="dipole">      0.00000000       0.00000000       0.00025608 </v>
    <i name="Tr[quadrupol]">   -309.55704892 </i>
    <i name="Echarged">      0.00000000 </i>
    <i name="Edipol_quadrupol">      0.00000000 </i>
    <i name="Eion">      0.00000000 </i>
   </dipole>
   <energy>
    <i name="alphaZ">     49.51986589 </i>
    <i name="ewald">  19932.97909997 </i>
    <i name="hartreedc"> -22508.53315554 </i>
    <i name="XCdc">   -371.23548957 </i>
    <i name="pawpsdc">   5641.03756310 </i>
    <i name="pawaedc">  -5492.05152143 </i>
    <i name="eentropy">     -0.00000000 </i>
    <i name="bandstr">   -346.78605703 </i>
    <i name="atom">   2656.22846841 </i>
    <i name="e_fr_energy">   -438.84122620 </i>
    <i name="e_wo_entrp">   -438.84122620 </i>
    <i name="e_0_energy">   -438.84122620 </i>
   </energy>
  </scstep>
  <structure>
   <crystal>
    <varray name="basis" >
     <v>       3.47177370       0.00000000       0.00000000 </v>
     <v>       0.00000000       6.01306383       0.00000404 </v>
     <v>       0.00000000       0.00002298      34.28346219 </v>
    </varray>
    <i name="volume">    715.70144931 </i>
    <varray name="rec_basis" >
     <v>       0.28803721       0.00000000       0.00000000 </v>
     <v>       0.00000000       0.16630457      -0.00000011 </v>
     <v>       0.00000000      -0.00000002       0.02916858 </v>
    </varray>
   </crystal>
   <varray name="positions" >
    <v>      -0.00000000       0.66666559       0.16107474 </v>
    <v>      -0.00000000       0.66666644       0.05825472 </v>
    <v>       0.50000000       0.16666559       0.16107474 </v>
    <v>       0.50000000       0.16666644       0.05825472 </v>
    <v>      -0.00000000       0.33333356       0.38022085 </v>
    <v>      -0.00000000       0.33333441       0.27740083 </v>
    <v>       0.50000000       0.83333356       0.38022085 </v>
    <v>       0.50000000       0.83333441       0.27740083 </v>
    <v>      -0.00000000      -0.00000028       0.10961300 </v>
    <v>       0.50000000       0.49999972       0.10961300 </v>
    <v>      -0.00000000       0.00000028       0.32886257 </v>
    <v>       0.50000000       0.50000028       0.32886257 </v>
   </varray>
  </structure>
  <varray name="forces" >
   <v>      -0.00000000      -0.00088148       0.75972508 </v>
   <v>       0.00000000      -0.00108691      -0.75776248 </v>
   <v>      -0.00000000      -0.00088148       0.75972508 </v>
   <v>       0.00000000      -0.00108691      -0.75776248 </v>
   <v>      -0.00000000       0.00108691       0.75776248 </v>
   <v>       0.00000000       0.00088148      -0.75972508 </v>
   <v>      -0.00000000       0.00108691       0.75776248 </v>
   <v>       0.00000000       0.00088148      -0.75972508 </v>
   <v>      -0.00000000       0.00024918       0.04295808 </v>
   <v>      -0.00000000       0.00024918       0.04295808 </v>
   <v>       0.00000000      -0.00024918      -0.04295808 </v>
   <v>       0.00000000      -0.00024918      -0.04295808 </v>
  </varray>
  <varray name="stress" >
   <v>      13.27844289       0.00000000       0.00000000 </v>
   <v>       0.00000000      13.31341361      -0.00158703 </v>
   <v>       0.00000000      -0.00158814      20.01301265 </v>
  </varray>
  <energy>
   <i name="e_fr_energy">   -438.84122620 </i>
   <i name="e_wo_entrp">   -438.84122620 </i>
   <i name="e_0_energy">     -0.00000000 </i>
  </energy>
  <time name="totalsc">  242.34  242.84</time>
 </calculation>
 <calculation>
  <scstep>
   <time name="dav">   10.11   10.11</time>
   <time name="total">   14.42   14.42</time>
   <dipole>
    <v name="dipole">      0.00000000      -0.00000000      -0.00278407 </v>
    <i name="Tr[quadrupol]">   -314.21075346 </i>
    <i name="Echarged">      0.00000000 </i>
    <i name="Edipol_quadrupol">      0.00000000 </i>
    <i name="Eion">      0.00000000 </i>
   </dipole>
   <energy>
    <i name="alphaZ">     48.01381885 </i>
    <i name="ewald">  19866.06806687 </i>
    <i name="hartreedc"> -22410.51487859 </i>
    <i name="XCdc">   -371.90553230 </i>
    <i name="pawpsdc">   5640.52020916 </i>
    <i name="pawaedc">  -5491.53358880 </i>
    <i name="eentropy">     -0.00000000 </i>
    <i name="bandstr">   -376.06042216 </i>
    <i name="atom">   2656.22846841 </i>
    <i name="e_fr_energy">   -439.18385857 </i>
    <i name="e_wo_entrp">   -439.18385857 </i>
    <i name="e_0_energy">   -439.18385857 </i>
   </energy>
  </scstep>
  <scstep>
   <time name="dav">   11.10   11.10</time>
   <time name="total">   15.48   15.49</time>
   <dipole>
    <v name="dipole">      0.00000000      -0.00000000      -0.00216765 </v>
    <i name="Tr[quadrupol]">   -314.63546494 </i>
    <i name="Echarged">      0.00000000 </i>
    <i name="Edipol_quadrupol">      0.00000000 </i>
    <i name="Eion">      0.00000000 </i>
   </dipole>
   <energy>
    <i name="e_fr_energy">   -439.02914192 </i>
    <i name="e_wo_entrp">   -439.02914192 </i>
    <i name="e_0_energy">   -439.02914192 </i>
   </energy>
  </scstep>
  <scstep>
   <time name="dav">   11.16   11.17</time>
   <time name="total">   15.49   15.51</time>
   <dipole>
    <v name="dipole">      0.00000000      -0.00000000      -0.00074847 </v>
    <i name="Tr[quadrupol]">   -314.70716587 </i>
    <i name="Echarged">      0.00000000 </i>
    <i name="Edipol_quadrupol">      0.00000000 </i>
    <i name="Eion">      0.00000000 </i>
   </dipole>
   <energy>
    <i name="e_fr_energy">   -438.99174736 </i>
    <i name="e_wo_entrp">   -438.99174736 </i>
    <i name="e_0_energy">   -438.99174736 </i>
   </energy>
  </scstep>
  <scstep>
   <time name="dav">   10.65   10.65</time>
   <time name="total">   15.01   15.03</time>
   <dipole>
    <v name="dipole">      0.00000000      -0.00000000      -0.00036397 </v>
    <i name="Tr[quadrupol]">   -314.84957394 </i>
    <i name="Echarged">      0.00000000 </i>
    <i name="Edipol_quadrupol">      0.00000000 </i>
    <i name="Eion">      0.00000000 </i>
   </dipole>
   <energy>
    <i name="e_fr_energy">   -438.98546405 </i>
    <i name="e_wo_entrp">   -438.98546405 </i>
    <i name="e_0_energy">   -438.98546405 </i>
   </energy>
  </scstep>
  <scstep>
   <time name="dav">   11.76   11.76</time>
   <time name="total">   16.07   16.08</time>
   <dipole>
    <v name="dipole">      0.00000000       0.00000000       0.00000262 </v>
    <i name="Tr[quadrupol]">   -315.01408442 </i>
    <i name="Echarged">      0.00000000 </i>
    <i name="Edipol_quadrupol">      0.00000000 </i>
    <i name="Eion">      0.00000000 </i>
   </dipole>
   <energy>
    <i name="e_fr_energy">   -438.97944597 </i>
    <i name="e_wo_entrp">   -438.97944597 </i>
    <i name="e_0_energy">   -438.97944597 </i>
   </energy>
  </scstep>
  <scstep>
   <time name="dav">   12.20   12.20</time>
   <time name="total">   16.56   16.58</time>
   <dipole>
    <v name="dipole">      0.00000000       0.00000000       0.00001470 </v>
    <i name="Tr[quadrupol]">   -315.08326305 </i>
    <i name="Echarged">      0.00000000 </i>
    <i name="Edipol_quadrupol">      0.00000000 </i>
    <i name="Eion">      0.00000000 </i>
   </dipole>
   <energy>
    <i name="e_fr_energy">   -438.97962292 </i>
    <i name="e_wo_entrp">   -438.97962292 </i>
    <i name="e_0_energy">   -438.97962292 </i>
   </energy>
  </scstep>
  <scstep>
   <time name="dav">   11.30   11.30</time>
   <time name="total">   15.62   15.62</time>
   <dipole>
    <v name="dipole">      0.00000000      -0.00000000      -0.00361685 </v>
    <i name="Tr[quadrupol]">   -315.28223098 </i>
    <i name="Echarged">      0.00000000 </i>
    <i name="Edipol_quadrupol">      0.00000000 </i>
    <i name="Eion">      0.00000000 </i>
   </dipole>
   <energy>
    <i name="e_fr_energy">   -438.97910555 </i>
    <i name="e_wo_entrp">   -438.97910555 </i>
    <i name="e_0_energy">   -438.97910555 </i>
   </energy>
  </scstep>
  <scstep>
   <time name="dav">   12.38   12.40</time>
   <time name="total">   16.70   16.72</time>
   <dipole>
    <v name="dipole">      0.00000000      -0.00000000      -0.00683006 </v>
    <i name="Tr[quadrupol]">   -315.32265207 </i>
    <i name="Echarged">      0.00000000 </i>
    <i name="Edipol_quadrupol">      0.00000000 </i>
    <i name="Eion">      0.00000000 </i>
   </dipole>
   <energy>
    <i name="e_fr_energy">   -438.97926899 </i>
    <i name="e_wo_entrp">   -438.97926899 </i>
    <i name="e_0_energy">   -438.97926899 </i>
   </energy>
  </scstep>
  <scstep>
   <time name="dav">   10.31   10.31</time>
   <time name="total">   14.63   14.63</time>
   <dipole>
    <v name="dipole">      0.00000000       0.00000000       0.00063954 </v>
    <i name="Tr[quadrupol]">   -315.42121995 </i>
    <i name="Echarged">      0.00000000 </i>
    <i name="Edipol_quadrupol">      0.00000000 </i>
    <i name="Eion">      0.00000000 </i>
   </dipole>
   <energy>
    <i name="e_fr_energy">   -438.97967517 </i>
    <i name="e_wo_entrp">   -438.97967517 </i>
    <i name="e_0_energy">   -438.97967517 </i>
   </energy>
  </scstep>
  <scstep>
   <time name="dav">    9.01    9.01</time>
   <time name="total">   13.33   13.34</time>
   <dipole>
    <v name="dipole">      0.00000000      -0.00000000      -0.00395437 </v>
    <i name="Tr[quadrupol]">   -315.45520408 </i>
    <i name="Echarged">      0.00000000 </i>
    <i name="Edipol_quadrupol">      0.00000000 </i>
    <i name="Eion">      0.00000000 </i>
   </dipole>
   <energy>
    <i name="e_fr_energy">   -438.97992376 </i>
    <i name="e_wo_entrp">   -438.97992376 </i>
    <i name="e_0_energy">   -438.97992376 </i>
   </energy>
  </scstep>
  <scstep>
   <time name="dav">    9.40    9.39</time>
   <time name="total">   13.75   13.77</time>
   <dipole>
    <v name="dipole">      0.00000000      -0.00000000      -0.00582470 </v>
    <i name="Tr[quadrupol]">   -315.50441303 </i>
    <i name="Echarged">      0.00000000 </i>
    <i name="Edipol_quadrupol">      0.00000000 </i>
    <i name="Eion">      0.00000000 </i>
   </dipole>
   <energy>
    <i name="e_fr_energy">   -438.98028134 </i>
    <i name="e_wo_entrp">   -438.98028134 </i>
    <i name="e_0_energy">   -438.98028134 </i>
   </energy>
  </scstep>
  <scstep>
   <time name="dav">    7.81    7.81</time>
   <time name="total">   10.29   10.29</time>
   <dipole>
    <v name="dipole">      0.00000000      -0.00000000      -0.00605884 </v>
    <i name="Tr[quadrupol]">   -315.52094753 </i>
    <i name="Echarged">      0.00000000 </i>
    <i name="Edipol_quadrupol">      0.00000000 </i>
    <i name="Eion">      0.00000000 </i>
   </dipole>
   <energy>
    <i name="alphaZ">     47.80954025 </i>
    <i name="ewald">  19866.06806687 </i>
    <i name="hartreedc"> -22435.80177307 </i>
    <i name="XCdc">   -372.27287584 </i>
    <i name="pawpsdc">   5376.27096686 </i>
    <i name="pawaedc">  -5226.65039370 </i>
    <i name="eentropy">     -0.00000000 </i>
    <i name="bandstr">   -350.63236422 </i>
    <i name="atom">   2656.22846841 </i>
    <i name="e_fr_energy">   -438.98036443 </i>
    <i name="e_wo_entrp">   -438.98036443 </i>
    <i name="e_0_energy">   -438.98036443 </i>
   </energy>
  </scstep>
  <structure>
   <crystal>
    <varray name="basis" >
     <v>       3.50216920       0.00000000       0.00000000 </v>
     <v>       0.00000000       6.06585489       0.00000125 </v>
     <v>       0.00000000       0.00000711      34.77841422 </v>
    </varray>
    <i name="volume">    738.82046511 </i>
    <varray name="rec_basis" >
     <v>       0.28553732       0.00000000       0.00000000 </v>
     <v>       0.00000000       0.16485722      -0.00000003 </v>
     <v>       0.00000000      -0.00000001       0.02875347 </v>
    </varray>
   </crystal>
   <varray name="positions" >
    <v>      -0.00000000       0.66666634       0.16125047 </v>
    <v>      -0.00000000       0.66666660       0.05801434 </v>
    <v>       0.50000000       0.16666634       0.16125047 </v>
    <v>       0.50000000       0.16666660       0.05801434 </v>
    <v>      -0.00000000       0.33333340       0.38046123 </v>
    <v>      -0.00000000       0.33333366       0.27722510 </v>
    <v>       0.50000000       0.83333340       0.38046123 </v>
    <v>       0.50000000       0.83333366       0.27722510 </v>
    <v>      -0.00000000      -0.00000008       0.10961715 </v>
    <v>       0.50000000       0.49999992       0.10961715 </v>
    <v>      -0.00000000       0.00000008       0.32885842 </v>
    <v>       0.50000000       0.50000008       0.32885842 </v>
   </varray>
  </structure>
  <varray name="forces" >
   <v>       0.00000000      -0.00044625       0.09364886 </v>
   <v>      -0.00000000      -0.00049931      -0.04383533 </v>
   <v>       0.00000000      -0.00044625       0.09364886 </v>
   <v>       0.00000000      -0.00049931      -0.04383533 </v>
   <v>       0.00000000       0.00049931       0.04383533 </v>
   <v>      -0.00000000       0.00044625      -0.09364886 </v>
   <v>       0.00000000       0.00049931       0.04383533 </v>
   <v>       0.00000000       0.00044625      -0.09364886 </v>
   <v>       0.00000000       0.00002739       0.00925545 </v>
   <v>      -0.00000000       0.00002739       0.00925545 </v>
   <v>      -0.00000000      -0.00002739      -0.00925545 </v>
   <v>       0.00000000      -0.00002739      -0.00925545 </v>
  </varray>
  <varray name="stress" >
   <v>      -1.08606255       0.00000000       0.00000000 </v>
   <v>       0.00000000      -1.08777141      -0.00042319 </v>
   <v>       0.00000000      -0.00042488      -2.14390031 </v>
  </varray>
  <energy>
   <i name="e_fr_energy">   -438.98036443 </i>
   <i name="e_wo_entrp">   -438.98036443 </i>
   <i name="e_0_energy">     -0.00000000 </i>
  </energy>
  <time name="totalsc">  213.04  213.23</time>
 </calculation>
 <calculation>
  <scstep>
   <time name="dav">   10.31   10.32</time>
   <time name="total">   14.60   14.62</time>
   <dipole>
    <v name="dipole">      0.00000000      -0.00000000       0.00272760 </v>
    <i name="Tr[quadrupol]">   -315.22077089 </i>
    <i name="Echarged">      0.00000000 </i>
    <i name="Edipol_quadrupol">      0.00000000 </i>
    <i name="Eion">      0.00000000 </i>
   </dipole>
   <energy>
    <i name="alphaZ">     48.08360870 </i>
    <i name="ewald">  19847.70453724 </i>
    <i name="hartreedc"> -22421.61342189 </i>
    <i name="XCdc">   -372.23140081 </i>
    <i name="pawpsdc">   5375.70654641 </i>
    <i name="pawaedc">  -5226.08477649 </i>
    <i name="eentropy">     -0.00000000 </i>
    <i name="bandstr">   -346.77721774 </i>
    <i name="atom">   2656.22846841 </i>
    <i name="e_fr_energy">   -438.98365617 </i>
    <i name="e_wo_entrp">   -438.98365617 </i>
    <i name="e_0_energy">   -438.98365617 </i>
   </energy>
  </scstep>
  <scstep>
   <time name="dav">   10.89   10.89</time>
   <time name="total">   15.19   15.19</time>
   <dipole>
    <v name="dipole">      0.00000000       0.00000000      -0.00121001 </v>
    <i name="Tr[quadrupol]">   -315.17034606 </i>
    <i name="Echarged">      0.00000000 </i>
    <i name="Edipol_quadrupol">      0.00000000 </i>
    <i name="Eion">      0.00000000 </i>
   </dipole>
   <energy>
    <i name="e_fr_energy">   -438.98286019 </i>
    <i name="e_wo_entrp">   -438.98286019 </i>
    <i name="e_0_energy">   -438.98286019 </i>
   </energy>
  </scstep>
  <scstep>
   <time name="dav">   11.38   11.39</time>
   <time name="total">   15.69   15.71</time>
   <dipole>
    <v name="dipole">      0.00000000      -0.00000000       0.00143583 </v>
    <i name="Tr[quadrupol]">   -315.16882516 </i>
    <i name="Echarged">      0.00000000 </i>
    <i name="Edipol_quadrupol">      0.00000000 </i>
    <i name="Eion">      0.00000000 </i>
   </dipole>
   <energy>
    <i name="e_fr_energy">   -438.98250887 </i>
    <i name="e_wo_entrp">   -438.98250887 </i>
    <i name="e_0_energy">   -438.98250887 </i>
   </energy>
  </scstep>
  <scstep>
   <time name="dav">   10.33   10.32</time>
   <time name="total">   14.63   14.63</time>
   <dipole>
    <v name="dipole">      0.00000000       0.00000000      -0.00117432 </v>
    <i name="Tr[quadrupol]">   -315.15818529 </i>
    <i name="Echarged">      0.00000000 </i>
    <i name="Edipol_quadrupol">      0.00000000 </i>
    <i name="Eion">      0.00000000 </i>
   </dipole>
   <energy>
    <i name="e_fr_energy">   -438.98236284 </i>
    <i name="e_wo_entrp">   -438.98236284 </i>
    <i name="e_0_energy">   -438.98236284 </i>
   </energy>
  </scstep>
  <scstep>
   <time name="dav">    8.83    8.85</time>
   <time name="total">   11.36   11.38</time>
   <dipole>
    <v name="dipole">      0.00000000      -0.00000000       0.00094077 </v>
    <i name="Tr[quadrupol]">   -315.14227368 </i>
    <i name="Echarged">      0.00000000 </i>
    <i name="Edipol_quadrupol">      0.00000000 </i>
    <i name="Eion">      0.00000000 </i>
   </dipole>
   <energy>
    <i name="alphaZ">     48.11302508 </i>
    <i name="ewald">  19847.70453724 </i>
    <i name="hartreedc"> -22419.70904843 </i>
    <i name="XCdc">   -372.22768992 </i>
    <i name="pawpsdc">   5377.69001157 </i>
    <i name="pawaedc">  -5228.07745292 </i>
    <i name="eentropy">     -0.00000000 </i>
    <i name="bandstr">   -348.70414243 </i>
    <i name="atom">   2656.22846841 </i>
    <i name="e_fr_energy">   -438.98229141 </i>
    <i name="e_wo_entrp">   -438.98229141 </i>
    <i name="e_0_energy">   -438.98229141 </i>
   </energy>
  </scstep>
  <structure>
   <crystal>
    <varray name="basis" >
     <v>       3.49974856       0.00000000       0.00000000 </v>
     <v>       0.00000000       6.06166312      -0.00000319 </v>
     <v>       0.00000000      -0.00001841      34.71867843 </v>
    </varray>
    <i name="volume">    736.53234859 </i>
    <varray name="rec_basis" >
     <v>       0.28573481       0.00000000       0.00000000 </v>
     <v>       0.00000000       0.16497123       0.00000009 </v>
     <v>       0.00000000       0.00000002       0.02880294 </v>
    </varray>
   </crystal>
   <varray name="positions" >
    <v>       0.00000000       0.66666337       0.16138335 </v>
    <v>      -0.00000000       0.66666320       0.05793332 </v>
    <v>       0.50000000       0.16666337       0.16138335 </v>
    <v>       0.50000000       0.16666320       0.05793332 </v>
    <v>       0.00000000       0.33333680       0.38054225 </v>
    <v>      -0.00000000       0.33333663       0.27709222 </v>
    <v>       0.50000000       0.83333680       0.38054225 </v>
    <v>       0.50000000       0.83333663       0.27709222 </v>
    <v>       0.00000000       0.00000013       0.10962871 </v>
    <v>       0.50000000       0.50000013       0.10962871 </v>
    <v>      -0.00000000      -0.00000013       0.32884686 </v>
    <v>       0.50000000       0.49999987       0.32884686 </v>
   </varray>
  </structure>
  <varray name="forces" >
   <v>      -0.00000000      -0.00032116       0.09259611 </v>
   <v>      -0.00000000      -0.00053551      -0.05690301 </v>
   <v>      -0.00000000      -0.00032116       0.09259611 </v>
   <v>      -0.00000000      -0.00053551      -0.05690301 </v>
   <v>       0.00000000       0.00053551       0.05690301 </v>
   <v>      -0.00000000       0.00032116      -0.09259611 </v>
   <v>       0.00000000       0.00053551       0.05690301 </v>
   <v>      -0.00000000       0.00032116      -0.09259611 </v>
   <v>      -0.00000000      -0.00024771       0.01969541 </v>
   <v>      -0.00000000      -0.00024771       0.01969541 </v>
   <v>      -0.00000000       0.00024771      -0.01969541 </v>
   <v>      -0.00000000       0.00024771      -0.01969541 </v>
  </varray>
  <varray name="stress" >
   <v>      -0.81400554       0.00000000       0.00000000 </v>
   <v>       0.00000000      -0.81795103      -0.00139785 </v>
   <v>       0.00000000      -0.00139955      -2.47807553 </v>
  </varray>
  <energy>
   <i name="e_fr_energy">   -438.98229141 </i>
   <i name="e_wo_entrp">   -438.98229141 </i>
   <i name="e_0_energy">     -0.00000000 </i>
  </energy>
  <time name="totalsc">  106.69  106.77</time>
 </calculation>
 <calculation>
  <scstep>
   <time name="dav">   10.25   10.25</time>
   <time name="total">   14.53   14.54</time>
   <dipole>
    <v name="dipole">      0.00000000       0.00000000      -0.00157477 </v>
    <i name="Tr[quadrupol]">   -314.16632693 </i>
    <i name="Echarged">      0.00000000 </i>
    <i name="Edipol_quadrupol">      0.00000000 </i>
    <i name="Eion">      0.00000000 </i>
   </dipole>
   <energy>
    <i name="alphaZ">     48.54854494 </i>
    <i name="ewald">  19792.37796240 </i>
    <i name="hartreedc"> -22376.15482522 </i>
    <i name="XCdc">   -372.09603571 </i>
    <i name="pawpsdc">   5378.97114884 </i>
    <i name="pawaedc">  -5229.36163104 </i>
    <i name="eentropy">     -0.00000000 </i>
    <i name="bandstr">   -337.51218297 </i>
    <i name="atom">   2656.22846841 </i>
    <i name="e_fr_energy">   -438.99855035 </i>
    <i name="e_wo_entrp">   -438.99855035 </i>
    <i name="e_0_energy">   -438.99855035 </i>
   </energy>
  </scstep>
  <scstep>
   <time name="dav">   10.88   10.91</time>
   <time name="total">   15.20   15.23</time>
   <dipole>
    <v name="dipole">      0.00000000       0.00000000      -0.00144062 </v>
    <i name="Tr[quadrupol]">   -314.00210122 </i>
    <i name="Echarged">      0.00000000 </i>
    <i name="Edipol_quadrupol">      0.00000000 </i>
    <i name="Eion">      0.00000000 </i>
   </dipole>
   <energy>
    <i name="e_fr_energy">   -438.98969855 </i>
    <i name="e_wo_entrp">   -438.98969855 </i>
    <i name="e_0_energy">   -438.98969855 </i>
   </energy>
  </scstep>
  <scstep>
   <time name="dav">   11.14   11.14</time>
   <time name="total">   15.44   15.44</time>
   <dipole>
    <v name="dipole">      0.00000000       0.00000000      -0.00006724 </v>
    <i name="Tr[quadrupol]">   -313.98894359 </i>
    <i name="Echarged">      0.00000000 </i>
    <i name="Edipol_quadrupol">      0.00000000 </i>
    <i name="Eion">      0.00000000 </i>
   </dipole>
   <energy>
    <i name="e_fr_energy">   -438.98646422 </i>
    <i name="e_wo_entrp">   -438.98646422 </i>
    <i name="e_0_energy">   -438.98646422 </i>
   </energy>
  </scstep>
  <scstep>
   <time name="dav">   12.38   12.40</time>
   <time name="total">   16.66   16.68</time>
   <dipole>
    <v name="dipole">      0.00000000      -0.00000000       0.00017547 </v>
    <i name="Tr[quadrupol]">   -313.94489915 </i>
    <i name="Echarged">      0.00000000 </i>
    <i name="Edipol_quadrupol">      0.00000000 </i>
    <i name="Eion">      0.00000000 </i>
   </dipole>
   <energy>
    <i name="e_fr_energy">   -438.98506597 </i>
    <i name="e_wo_entrp">   -438.98506597 </i>
    <i name="e_0_energy">   -438.98506597 </i>
   </energy>
  </scstep>
  <scstep>
   <time name="dav">   11.20   11.20</time>
   <time name="total">   15.51   15.51</time>
   <dipole>
    <v name="dipole">      0.00000000       0.00000000      -0.00004901 </v>
    <i name="Tr[quadrupol]">   -313.89390046 </i>
    <i name="Echarged">      0.00000000 </i>
    <i name="Edipol_quadrupol">      0.00000000 </i>
    <i name="Eion">      0.00000000 </i>
   </dipole>
   <energy>
    <i name="e_fr_energy">   -438.98447700 </i>
    <i name="e_wo_entrp">   -438.98447700 </i>
    <i name="e_0_energy">   -438.98447700 </i>
   </energy>
  </scstep>
  <scstep>
   <time name="dav">    9.25    9.27</time>
   <time name="total">   11.79   11.81</time>
   <dipole>
    <v name="dipole">      0.00000000      -0.00000000       0.00000518 </v>
    <i name="Tr[quadrupol]">   -313.85305895 </i>
    <i name="Echarged">      0.00000000 </i>
    <i name="Edipol_quadrupol">      0.00000000 </i>
    <i name="Eion">      0.00000000 </i>
   </dipole>
   <energy>
    <i name="alphaZ">     48.57033239 </i>
    <i name="ewald">  19792.37796240 </i>
    <i name="hartreedc"> -22369.38941943 </i>
    <i name="XCdc">   -372.11067632 </i>
    <i name="pawpsdc">   5395.65076138 </i>
    <i name="pawaedc">  -5246.07217124 </i>
    <i name="eentropy">     -0.00000000 </i>
    <i name="bandstr">   -344.23963754 </i>
    <i name="atom">   2656.22846841 </i>
    <i name="e_fr_energy">   -438.98437995 </i>
    <i name="e_wo_entrp">   -438.98437995 </i>
    <i name="e_0_energy">   -438.98437995 </i>
   </energy>
  </scstep>
  <structure>
   <crystal>
    <varray name="basis" >
     <v>       3.49248665       0.00000000       0.00000000 </v>
     <v>       0.00000000       6.04908781      -0.00001651 </v>
     <v>       0.00000000      -0.00009497      34.53947104 </v>
    </varray>
    <i name="volume">    729.69324594 </i>
    <varray name="rec_basis" >
     <v>       0.28632894       0.00000000       0.00000000 </v>
     <v>       0.00000000       0.16531418       0.00000045 </v>
     <v>       0.00000000       0.00000008       0.02895238 </v>
    </varray>
   </crystal>
   <varray name="positions" >
    <v>       0.00000000       0.66665446       0.16178266 </v>
    <v>      -0.00000000       0.66665298       0.05768984 </v>
    <v>       0.50000000       0.16665446       0.16178266 </v>
    <v>       0.50000000       0.16665298       0.05768984 </v>
    <v>       0.00000000       0.33334702       0.38078573 </v>
    <v>      -0.00000000       0.33334554       0.27669291 </v>
    <v>       0.50000000       0.83334702       0.38078573 </v>
    <v>       0.50000000       0.83334554       0.27669291 </v>
    <v>       0.00000000       0.00000076       0.10966345 </v>
    <v>       0.50000000       0.50000076       0.10966345 </v>
    <v>      -0.00000000      -0.00000076       0.32881212 </v>
    <v>       0.50000000       0.49999924       0.32881212 </v>
   </varray>
  </structure>
  <varray name="forces" >
   <v>       0.00000000      -0.00020558       0.08305902 </v>
   <v>      -0.00000000      -0.00025891      -0.08847331 </v>
   <v>       0.00000000      -0.00020558       0.08305902 </v>
   <v>      -0.00000000      -0.00025891      -0.08847331 </v>
   <v>      -0.00000000       0.00025891       0.08847331 </v>
   <v>      -0.00000000       0.00020558      -0.08305902 </v>
   <v>      -0.00000000       0.00025891       0.08847331 </v>
   <v>      -0.00000000       0.00020558      -0.08305902 </v>
   <v>      -0.00000000      -0.00116602       0.05293563 </v>
   <v>      -0.00000000      -0.00116602       0.05293563 </v>
   <v>      -0.00000000       0.00116602      -0.05293563 </v>
   <v>       0.00000000       0.00116602      -0.05293563 </v>
  </varray>
  <varray name="stress" >
   <v>       0.56920860       0.00000000       0.00000000 </v>
   <v>       0.00000000       0.56303101       0.00051110 </v>
   <v>       0.00000000       0.00051026      -2.34340208 </v>
  </varray>
  <energy>
   <i name="e_fr_energy">   -438.98437995 </i>
   <i name="e_wo_entrp">   -438.98437995 </i>
   <i name="e_0_energy">     -0.00000000 </i>
  </energy>
  <time name="totalsc">  124.37  124.45</time>
 </calculation>
 <calculation>
  <scstep>
   <time name="dav">   10.25   10.25</time>
   <time name="total">   14.56   14.56</time>
   <dipole>
    <v name="dipole">      0.00000000       0.00000002      -0.00211914 </v>
    <i name="Tr[quadrupol]">   -311.87125090 </i>
    <i name="Echarged">      0.00000000 </i>
    <i name="Edipol_quadrupol">      0.00000000 </i>
    <i name="Eion">      0.00000000 </i>
   </dipole>
   <energy>
    <i name="alphaZ">     49.55688046 </i>
    <i name="ewald">  19680.59548425 </i>
    <i name="hartreedc"> -22280.67014209 </i>
    <i name="XCdc">   -371.86944377 </i>
    <i name="pawpsdc">   5403.97945588 </i>
    <i name="pawaedc">  -5254.41652734 </i>
    <i name="eentropy">     -0.00000000 </i>
    <i name="bandstr">   -322.44609520 </i>
    <i name="atom">   2656.22846841 </i>
    <i name="e_fr_energy">   -439.04191939 </i>
    <i name="e_wo_entrp">   -439.04191939 </i>
    <i name="e_0_energy">   -439.04191939 </i>
   </energy>
  </scstep>
  <scstep>
   <time name="dav">   10.86   10.88</time>
   <time name="total">   15.24   15.26</time>
   <dipole>
    <v name="dipole">      0.00000000       0.00000004      -0.00543296 </v>
    <i name="Tr[quadrupol]">   -311.53919390 </i>
    <i name="Echarged">      0.00000000 </i>
    <i name="Edipol_quadrupol">      0.00000000 </i>
    <i name="Eion">      0.00000000 </i>
   </dipole>
   <energy>
    <i name="e_fr_energy">   -438.99624908 </i>
    <i name="e_wo_entrp">   -438.99624908 </i>
    <i name="e_0_energy">   -438.99624908 </i>
   </energy>
  </scstep>
  <scstep>
   <time name="dav">   10.98   10.98</time>
   <time name="total">   15.29   15.29</time>
   <dipole>
    <v name="dipole">      0.00000000      -0.00000000       0.00048064 </v>
    <i name="Tr[quadrupol]">   -311.49500871 </i>
    <i name="Echarged">      0.00000000 </i>
    <i name="Edipol_quadrupol">      0.00000000 </i>
    <i name="Eion">      0.00000000 </i>
   </dipole>
   <energy>
    <i name="e_fr_energy">   -438.98402579 </i>
    <i name="e_wo_entrp">   -438.98402579 </i>
    <i name="e_0_energy">   -438.98402579 </i>
   </energy>
  </scstep>
  <scstep>
   <time name="dav">   12.31   12.33</time>
   <time name="total">   16.63   16.65</time>
   <dipole>
    <v name="dipole">      0.00000000       0.00000003      -0.00369414 </v>
    <i name="Tr[quadrupol]">   -311.41170906 </i>
    <i name="Echarged">      0.00000000 </i>
    <i name="Edipol_quadrupol">      0.00000000 </i>
    <i name="Eion">      0.00000000 </i>
   </dipole>
   <energy>
    <i name="e_fr_energy">   -438.97920300 </i>
    <i name="e_wo_entrp">   -438.97920300 </i>
    <i name="e_0_energy">   -438.97920300 </i>
   </energy>
  </scstep>
  <scstep>
   <time name="dav">   11.13   11.12</time>
   <time name="total">   15.84   15.87</time>
   <dipole>
    <v name="dipole">      0.00000000      -0.00000002       0.00236068 </v>
    <i name="Tr[quadrupol]">   -311.29974903 </i>
    <i name="Echarged">      0.00000000 </i>
    <i name="Edipol_quadrupol">      0.00000000 </i>
    <i name="Eion">      0.00000000 </i>
   </dipole>
   <energy>
    <i name="e_fr_energy">   -438.97721732 </i>
    <i name="e_wo_entrp">   -438.97721732 </i>
    <i name="e_0_energy">   -438.97721732 </i>
   </energy>
  </scstep>
  <scstep>
   <time name="dav">   11.18   11.20</time>
   <time name="total">   15.55   15.57</time>
   <dipole>
    <v name="dipole">      0.00000000       0.00000003      -0.00348836 </v>
    <i name="Tr[quadrupol]">   -311.21570380 </i>
    <i name="Echarged">      0.00000000 </i>
    <i name="Edipol_quadrupol">      0.00000000 </i>
    <i name="Eion">      0.00000000 </i>
   </dipole>
   <energy>
    <i name="e_fr_energy">   -438.97697928 </i>
    <i name="e_wo_entrp">   -438.97697928 </i>
    <i name="e_0_energy">   -438.97697928 </i>
   </energy>
  </scstep>
  <scstep>
   <time name="dav">   10.60   10.60</time>
   <time name="total">   14.94   14.94</time>
   <dipole>
    <v name="dipole">      0.00000000      -0.00000002       0.00320362 </v>
    <i name="Tr[quadrupol]">   -311.07364962 </i>
    <i name="Echarged">      0.00000000 </i>
    <i name="Edipol_quadrupol">      0.00000000 </i>
    <i name="Eion">      0.00000000 </i>
   </dipole>
   <energy>
    <i name="e_fr_energy">   -438.97719865 </i>
    <i name="e_wo_entrp">   -438.97719865 </i>
    <i name="e_0_energy">   -438.97719865 </i>
   </energy>
  </scstep>
  <scstep>
   <time name="dav">   11.05   11.08</time>
   <time name="total">   15.43   15.46</time>
   <dipole>
    <v name="dipole">      0.00000000       0.00000003      -0.00347342 </v>
    <i name="Tr[quadrupol]">   -311.02760766 </i>
    <i name="Echarged">      0.00000000 </i>
    <i name="Edipol_quadrupol">      0.00000000 </i>
    <i name="Eion">      0.00000000 </i>
   </dipole>
   <energy>
    <i name="e_fr_energy">   -438.97733347 </i>
    <i name="e_wo_entrp">   -438.97733347 </i>
    <i name="e_0_energy">   -438.97733347 </i>
   </energy>
  </scstep>
  <scstep>
   <time name="dav">    9.55    9.55</time>
   <time name="total">   13.87   13.87</time>
   <dipole>
    <v name="dipole">      0.00000000       0.00000005      -0.00638431 </v>
    <i name="Tr[quadrupol]">   -310.98844578 </i>
    <i name="Echarged">      0.00000000 </i>
    <i name="Edipol_quadrupol">      0.00000000 </i>
[...]
       <r>    1.8591    0.0000 </r>
      </set>
      <set comment="kpoint 49">
       <r>  -11.3176    1.0000 </r>
       <r>  -11.2612    1.0000 </r>
       <r>  -11.1981    1.0000 </r>
       <r>  -11.1510    1.0000 </r>
       <r>  -10.9267    1.0000 </r>
       <r>  -10.8599    1.0000 </r>
       <r>  -10.8446    1.0000 </r>
       <r>  -10.7879    1.0000 </r>
       <r>   -5.7349    1.0000 </r>
       <r>   -5.7260    1.0000 </r>
       <r>   -5.6471    1.0000 </r>
       <r>   -5.6373    1.0000 </r>
       <r>   -4.9467    1.0000 </r>
       <r>   -4.8525    1.0000 </r>
       <r>   -4.7989    1.0000 </r>
       <r>   -4.6970    1.0000 </r>
       <r>   -3.7677    1.0000 </r>
       <r>   -3.7208    1.0000 </r>
       <r>   -3.6503    1.0000 </r>
       <r>   -3.6284    1.0000 </r>
       <r>   -2.5875    1.0000 </r>
       <r>   -2.5463    1.0000 </r>
       <r>   -2.4548    1.0000 </r>
       <r>   -2.4245    1.0000 </r>
       <r>   -2.1108    1.0000 </r>
       <r>   -2.0779    1.0000 </r>
       <r>   -1.6382    1.0000 </r>
       <r>   -1.6273    1.0000 </r>
       <r>   -1.2790    1.0000 </r>
       <r>   -1.1956    1.0000 </r>
       <r>   -1.1268    1.0000 </r>
       <r>   -0.9501    1.0000 </r>
       <r>   -0.3980    1.0000 </r>
       <r>   -0.3254    1.0000 </r>
       <r>   -0.3240    1.0000 </r>
       <r>   -0.2854    1.0000 </r>
       <r>    1.5400    0.0000 </r>
       <r>    1.5848    0.0000 </r>
       <r>    1.5962    0.0000 </r>
       <r>    1.6121    0.0000 </r>
       <r>    1.6941    0.0000 </r>
       <r>    1.8314    0.0000 </r>
       <r>    1.8579    0.0000 </r>
       <r>    1.9057    0.0000 </r>
      </set>
      <set comment="kpoint 50">
       <r>  -11.1873    1.0000 </r>
       <r>  -11.1448    1.0000 </r>
       <r>  -11.1429    1.0000 </r>
       <r>  -11.1050    1.0000 </r>
       <r>  -10.8412    1.0000 </r>
       <r>  -10.8125    1.0000 </r>
       <r>  -10.7865    1.0000 </r>
       <r>  -10.7620    1.0000 </r>
       <r>   -5.8583    1.0000 </r>
       <r>   -5.8505    1.0000 </r>
       <r>   -5.8276    1.0000 </r>
       <r>   -5.8188    1.0000 </r>
       <r>   -5.0340    1.0000 </r>
       <r>   -5.0012    1.0000 </r>
       <r>   -4.8819    1.0000 </r>
       <r>   -4.8467    1.0000 </r>
       <r>   -3.7267    1.0000 </r>
       <r>   -3.7105    1.0000 </r>
       <r>   -3.6485    1.0000 </r>
       <r>   -3.6437    1.0000 </r>
       <r>   -2.5359    1.0000 </r>
       <r>   -2.5086    1.0000 </r>
       <r>   -2.4962    1.0000 </r>
       <r>   -2.4667    1.0000 </r>
       <r>   -2.1308    1.0000 </r>
       <r>   -2.1221    1.0000 </r>
       <r>   -1.6592    1.0000 </r>
       <r>   -1.6542    1.0000 </r>
       <r>   -1.1047    1.0000 </r>
       <r>   -1.0593    1.0000 </r>
       <r>   -0.9911    1.0000 </r>
       <r>   -0.8930    1.0000 </r>
       <r>   -0.3423    1.0000 </r>
       <r>   -0.3007    1.0000 </r>
       <r>   -0.2633    1.0000 </r>
       <r>   -0.2620    1.0000 </r>
       <r>    1.5415    0.0000 </r>
       <r>    1.5487    0.0000 </r>
       <r>    1.5695    0.0000 </r>
       <r>    1.5723    0.0000 </r>
       <r>    1.8130    0.0000 </r>
       <r>    1.8832    0.0000 </r>
       <r>    1.8975    0.0000 </r>
       <r>    1.8999    0.0000 </r>
      </set>
     </set>
    </set>
   </array>
  </eigenvalues>
  <separator name="orbital magnetization" >
   <v name="MAGDIPOLOUT">      0.00000000      0.00000000      0.00000000</v>
  </separator>
  <dos>
   <i name="efermi">      0.19335239 </i>
   <total>
    <array>
     <dimension dim="1">gridpoints</dimension>
     <dimension dim="2">spin</dimension>
     <field>energy</field>
     <field>total</field>
     <field>integrated</field>
     <set>
      <set comment="spin 1">
       <r>   -14.1682     0.0000     0.0000 </r>
       <r>   -14.1071     0.0000     0.0000 </r>
       <r>   -14.0460     0.0000     0.0000 </r>
       <r>   -13.9849     0.0000     0.0000 </r>
       <r>   -13.9238     0.0000     0.0000 </r>
       <r>   -13.8627     0.0000     0.0000 </r>
       <r>   -13.8016     0.0000     0.0000 </r>
       <r>   -13.7405     0.0000     0.0000 </r>
       <r>   -13.6794     0.0000     0.0000 </r>
       <r>   -13.6183     0.0000     0.0000 </r>
       <r>   -13.5572     0.0000     0.0000 </r>
       <r>   -13.4961     0.0000     0.0000 </r>
       <r>   -13.4350     0.0015     0.0001 </r>
       <r>   -13.3739     0.0903     0.0056 </r>
       <r>   -13.3128     0.5609     0.0399 </r>
       <r>   -13.2517     1.2020     0.1133 </r>
       <r>   -13.1906     1.6981     0.2171 </r>
       <r>   -13.1295     1.9905     0.3387 </r>
       <r>   -13.0684     2.0910     0.4665 </r>
       <r>   -13.0072     1.9442     0.5853 </r>
       <r>   -12.9461     2.1162     0.7146 </r>
       <r>   -12.8850     1.9793     0.8355 </r>
       <r>   -12.8239     2.1221     0.9652 </r>
       <r>   -12.7628     2.2839     1.1048 </r>
       <r>   -12.7017     2.0923     1.2326 </r>
       <r>   -12.6406     1.8948     1.3484 </r>
       <r>   -12.5795     2.2805     1.4878 </r>
       <r>   -12.5184     2.3164     1.6293 </r>
       <r>   -12.4573     2.6731     1.7926 </r>
       <r>   -12.3962     2.1184     1.9221 </r>
       <r>   -12.3351     3.0413     2.1079 </r>
       <r>   -12.2740     3.6445     2.3306 </r>
       <r>   -12.2129     4.5605     2.6093 </r>
       <r>   -12.1518     5.5759     2.9500 </r>
       <r>   -12.0907     5.1312     3.2636 </r>
       <r>   -12.0296     4.9819     3.5680 </r>
       <r>   -11.9685     4.8832     3.8664 </r>
       <r>   -11.9074     6.0646     4.2369 </r>
       <r>   -11.8463     6.4075     4.6285 </r>
       <r>   -11.7851     6.3520     5.0166 </r>
       <r>   -11.7240     4.8045     5.3102 </r>
       <r>   -11.6629     5.9221     5.6721 </r>
       <r>   -11.6018     6.9448     6.0964 </r>
       <r>   -11.5407     7.1017     6.5304 </r>
       <r>   -11.4796     7.3325     6.9784 </r>
       <r>   -11.4185     6.5635     7.3795 </r>
       <r>   -11.3574     7.2795     7.8243 </r>
       <r>   -11.2963     8.9231     8.3695 </r>
       <r>   -11.2352     9.8171     8.9694 </r>
       <r>   -11.1741     9.7866     9.5674 </r>
       <r>   -11.1130    11.9421    10.2972 </r>
       <r>   -11.0519    12.9532    11.0887 </r>
       <r>   -10.9908    10.4885    11.7296 </r>
       <r>   -10.9297    10.4993    12.3711 </r>
       <r>   -10.8686    11.7417    13.0886 </r>
       <r>   -10.8075    12.4788    13.8511 </r>
       <r>   -10.7464    11.3551    14.5450 </r>
       <r>   -10.6853     8.5226    15.0657 </r>
       <r>   -10.6242     6.5208    15.4642 </r>
       <r>   -10.5630     5.4785    15.7990 </r>
       <r>   -10.5019     2.8817    15.9751 </r>
       <r>   -10.4408     0.4015    15.9996 </r>
       <r>   -10.3797     0.0068    16.0000 </r>
       <r>   -10.3186     0.0000    16.0000 </r>
       <r>   -10.2575     0.0000    16.0000 </r>
       <r>   -10.1964     0.0000    16.0000 </r>
       <r>   -10.1353     0.0000    16.0000 </r>
       <r>   -10.0742     0.0000    16.0000 </r>
       <r>   -10.0131     0.0000    16.0000 </r>
       <r>    -9.9520     0.0000    16.0000 </r>
       <r>    -9.8909     0.0000    16.0000 </r>
       <r>    -9.8298     0.0000    16.0000 </r>
       <r>    -9.7687     0.0000    16.0000 </r>
       <r>    -9.7076     0.0000    16.0000 </r>
       <r>    -9.6465     0.0000    16.0000 </r>
       <r>    -9.5854     0.0000    16.0000 </r>
       <r>    -9.5243     0.0000    16.0000 </r>
       <r>    -9.4632     0.0000    16.0000 </r>
       <r>    -9.4021     0.0000    16.0000 </r>
       <r>    -9.3409     0.0000    16.0000 </r>
       <r>    -9.2798     0.0000    16.0000 </r>
       <r>    -9.2187     0.0000    16.0000 </r>
       <r>    -9.1576     0.0000    16.0000 </r>
       <r>    -9.0965     0.0000    16.0000 </r>
       <r>    -9.0354     0.0000    16.0000 </r>
       <r>    -8.9743     0.0000    16.0000 </r>
       <r>    -8.9132     0.0000    16.0000 </r>
       <r>    -8.8521     0.0000    16.0000 </r>
       <r>    -8.7910     0.0000    16.0000 </r>
       <r>    -8.7299     0.0000    16.0000 </r>
       <r>    -8.6688     0.0000    16.0000 </r>
       <r>    -8.6077     0.0000    16.0000 </r>
       <r>    -8.5466     0.0000    16.0000 </r>
       <r>    -8.4855     0.0000    16.0000 </r>
       <r>    -8.4244     0.0000    16.0000 </r>
       <r>    -8.3633     0.0000    16.0000 </r>
       <r>    -8.3022     0.0000    16.0000 </r>
       <r>    -8.2411     0.0000    16.0000 </r>
       <r>    -8.1799     0.0000    16.0000 </r>
       <r>    -8.1188     0.0000    16.0000 </r>
       <r>    -8.0577     0.0000    16.0000 </r>
       <r>    -7.9966     0.0000    16.0000 </r>
       <r>    -7.9355     0.0000    16.0000 </r>
       <r>    -7.8744     0.0000    16.0000 </r>
       <r>    -7.8133     0.0000    16.0000 </r>
       <r>    -7.7522     0.0000    16.0000 </r>
       <r>    -7.6911     0.0000    16.0000 </r>
       <r>    -7.6300     0.0000    16.0000 </r>
       <r>    -7.5689     0.0000    16.0000 </r>
       <r>    -7.5078     0.0000    16.0000 </r>
       <r>    -7.4467     0.0000    16.0000 </r>
       <r>    -7.3856     0.0000    16.0000 </r>
       <r>    -7.3245     0.0000    16.0000 </r>
       <r>    -7.2634     0.0000    16.0000 </r>
       <r>    -7.2023     0.0000    16.0000 </r>
       <r>    -7.1412     0.0000    16.0000 </r>
       <r>    -7.0801     0.0000    16.0000 </r>
       <r>    -7.0190     0.0000    16.0000 </r>
       <r>    -6.9578     0.0000    16.0000 </r>
       <r>    -6.8967     0.0000    16.0000 </r>
       <r>    -6.8356     0.0000    16.0000 </r>
       <r>    -6.7745     0.0000    16.0000 </r>
       <r>    -6.7134     0.0000    16.0000 </r>
       <r>    -6.6523     0.0000    16.0000 </r>
       <r>    -6.5912     0.0000    16.0000 </r>
       <r>    -6.5301     0.0000    16.0000 </r>
       <r>    -6.4690     0.0000    16.0000 </r>
       <r>    -6.4079     0.0000    16.0000 </r>
       <r>    -6.3468     0.0000    16.0000 </r>
       <r>    -6.2857     0.0000    16.0000 </r>
       <r>    -6.2246     0.0000    16.0000 </r>
       <r>    -6.1635     0.0000    16.0000 </r>
       <r>    -6.1024     0.0000    16.0000 </r>
       <r>    -6.0413     0.0000    16.0000 </r>
       <r>    -5.9802     0.0003    16.0000 </r>
       <r>    -5.9191     0.0613    16.0038 </r>
       <r>    -5.8580     1.1067    16.0714 </r>
       <r>    -5.7969     2.7372    16.2386 </r>
       <r>    -5.7357     2.9499    16.4189 </r>
       <r>    -5.6746     3.5310    16.6347 </r>
       <r>    -5.6135     4.0543    16.8824 </r>
       <r>    -5.5524     3.8380    17.1169 </r>
       <r>    -5.4913     4.7963    17.4100 </r>
       <r>    -5.4302     5.6253    17.7537 </r>
       <r>    -5.3691     4.0414    18.0007 </r>
       <r>    -5.3080     3.2533    18.1995 </r>
       <r>    -5.2469     4.8836    18.4979 </r>
       <r>    -5.1858     6.8996    18.9195 </r>
       <r>    -5.1247     8.7392    19.4535 </r>
       <r>    -5.0636     7.7121    19.9248 </r>
       <r>    -5.0025     9.4494    20.5022 </r>
       <r>    -4.9414    11.6639    21.2149 </r>
       <r>    -4.8803    12.8656    22.0010 </r>
       <r>    -4.8192    16.9253    23.0353 </r>
       <r>    -4.7581    16.5222    24.0448 </r>
       <r>    -4.6970    13.8270    24.8897 </r>
       <r>    -4.6359    10.9756    25.5604 </r>
       <r>    -4.5748     7.2709    26.0047 </r>
       <r>    -4.5136     5.4181    26.3358 </r>
       <r>    -4.4525     6.5639    26.7369 </r>
       <r>    -4.3914     8.3002    27.2440 </r>
       <r>    -4.3303     6.5278    27.6429 </r>
       <r>    -4.2692     4.1523    27.8967 </r>
       <r>    -4.2081     1.8476    28.0095 </r>
       <r>    -4.1470     1.6342    28.1094 </r>
       <r>    -4.0859     3.1533    28.3021 </r>
       <r>    -4.0248     3.9347    28.5425 </r>
       <r>    -3.9637     4.0660    28.7910 </r>
       <r>    -3.9026     4.3924    29.0594 </r>
       <r>    -3.8415     7.0125    29.4879 </r>
       <r>    -3.7804     9.0838    30.0429 </r>
       <r>    -3.7193    14.4128    30.9236 </r>
       <r>    -3.6582    21.7094    32.2502 </r>
       <r>    -3.5971    20.9221    33.5286 </r>
       <r>    -3.5360    14.8161    34.4340 </r>
       <r>    -3.4749    11.3830    35.1295 </r>
       <r>    -3.4138     6.4646    35.5245 </r>
       <r>    -3.3527     4.8992    35.8239 </r>
       <r>    -3.2915     7.6669    36.2924 </r>
       <r>    -3.2304    11.1947    36.9765 </r>
       <r>    -3.1693    10.8921    37.6420 </r>
       <r>    -3.1082    10.3695    38.2756 </r>
       <r>    -3.0471    10.4422    38.9137 </r>
       <r>    -2.9860    10.3483    39.5460 </r>
       <r>    -2.9249    10.9852    40.2173 </r>
       <r>    -2.8638    11.4623    40.9177 </r>
       <r>    -2.8027     9.7313    41.5123 </r>
       <r>    -2.7416    10.7551    42.1695 </r>
       <r>    -2.6805     9.1643    42.7295 </r>
       <r>    -2.6194     9.9022    43.3346 </r>
       <r>    -2.5583     9.8317    43.9354 </r>
       <r>    -2.4972    11.5447    44.6408 </r>
       <r>    -2.4361    11.0158    45.3139 </r>
       <r>    -2.3750     9.6912    45.9061 </r>
       <r>    -2.3139     8.6785    46.4364 </r>
       <r>    -2.2528     6.4628    46.8313 </r>
       <r>    -2.1917     6.5200    47.2297 </r>
       <r>    -2.1305     7.1173    47.6646 </r>
       <r>    -2.0694     9.5670    48.2492 </r>
       <r>    -2.0083    12.8089    49.0319 </r>
       <r>    -1.9472    14.3688    49.9099 </r>
       <r>    -1.8861    11.9673    50.6412 </r>
       <r>    -1.8250    10.9620    51.3110 </r>
       <r>    -1.7639    11.6414    52.0224 </r>
       <r>    -1.7028    13.8093    52.8662 </r>
       <r>    -1.6417    15.9135    53.8386 </r>
       <r>    -1.5806    15.1075    54.7617 </r>
       <r>    -1.5195    14.2988    55.6354 </r>
       <r>    -1.4584    15.2574    56.5677 </r>
       <r>    -1.3973    16.9451    57.6032 </r>
       <r>    -1.3362    12.8874    58.3907 </r>
       <r>    -1.2751    12.0149    59.1248 </r>
       <r>    -1.2140    14.2675    59.9967 </r>
       <r>    -1.1529    11.4778    60.6980 </r>
       <r>    -1.0918     9.9544    61.3063 </r>
       <r>    -1.0307    12.4257    62.0655 </r>
       <r>    -0.9696    10.9436    62.7342 </r>
       <r>    -0.9084     8.1600    63.2329 </r>
       <r>    -0.8473     9.5311    63.8153 </r>
       <r>    -0.7862    14.5332    64.7033 </r>
       <r>    -0.7251    12.4880    65.4664 </r>
       <r>    -0.6640     7.7318    65.9388 </r>
       <r>    -0.6029     7.5673    66.4012 </r>
       <r>    -0.5418     9.4982    66.9816 </r>
       <r>    -0.4807     9.7360    67.5766 </r>
       <r>    -0.4196    11.1006    68.2549 </r>
       <r>    -0.3585    13.3882    69.0729 </r>
       <r>    -0.2974    15.5358    70.0223 </r>
       <r>    -0.2363    14.8974    70.9326 </r>
       <r>    -0.1752     9.3464    71.5037 </r>
       <r>    -0.1141     4.4177    71.7736 </r>
       <r>    -0.0530     2.6533    71.9357 </r>
       <r>     0.0081     0.9878    71.9961 </r>
       <r>     0.0692     0.0634    72.0000 </r>
       <r>     0.1303     0.0004    72.0000 </r>
       <r>     0.1914     0.0000    72.0000 </r>
       <r>     0.2525     0.0000    72.0000 </r>
       <r>     0.3137     0.0000    72.0000 </r>
       <r>     0.3748     0.0000    72.0000 </r>
       <r>     0.4359     0.0000    72.0000 </r>
       <r>     0.4970     0.0000    72.0000 </r>
       <r>     0.5581     0.0000    72.0000 </r>
       <r>     0.6192     0.0000    72.0000 </r>
       <r>     0.6803     0.0000    72.0000 </r>
       <r>     0.7414     0.0000    72.0000 </r>
       <r>     0.8025     0.0000    72.0000 </r>
       <r>     0.8636     0.0000    72.0000 </r>
       <r>     0.9247     0.0000    72.0000 </r>
       <r>     0.9858     0.0000    72.0000 </r>
       <r>     1.0469     0.0009    72.0001 </r>
       <r>     1.1080     0.1391    72.0086 </r>
       <r>     1.1691     1.7960    72.1183 </r>
       <r>     1.2302     4.2945    72.3807 </r>
       <r>     1.2913     7.0136    72.8093 </r>
       <r>     1.3524    10.4478    73.4477 </r>
       <r>     1.4135    12.1651    74.1910 </r>
       <r>     1.4746    11.8077    74.9126 </r>
       <r>     1.5358    14.9961    75.8289 </r>
       <r>     1.5969    17.9120    76.9234 </r>
       <r>     1.6580    15.9939    77.9007 </r>
       <r>     1.7191    10.3570    78.5336 </r>
       <r>     1.7802     8.7093    79.0658 </r>
       <r>     1.8413    16.8905    80.0979 </r>
       <r>     1.9024    24.8044    81.6135 </r>
       <r>     1.9635    22.3762    82.9808 </r>
       <r>     2.0246    15.1733    83.9080 </r>
       <r>     2.0857    12.8664    84.6942 </r>
       <r>     2.1468    11.7460    85.4119 </r>
       <r>     2.2079     8.4377    85.9275 </r>
       <r>     2.2690     5.9641    86.2920 </r>
       <r>     2.3301     3.2783    86.4923 </r>
       <r>     2.3912     2.4601    86.6426 </r>
       <r>     2.4523     2.6733    86.8060 </r>
       <r>     2.5134     2.4683    86.9568 </r>
       <r>     2.5745     2.0845    87.0842 </r>
       <r>     2.6356     0.8995    87.1391 </r>
       <r>     2.6968     1.3451    87.2213 </r>
       <r>     2.7579     2.0678    87.3477 </r>
       <r>     2.8190     1.2529    87.4242 </r>
       <r>     2.8801     0.7154    87.4679 </r>
       <r>     2.9412     0.9491    87.5259 </r>
       <r>     3.0023     1.4596    87.6151 </r>
       <r>     3.0634     1.3095    87.6952 </r>
       <r>     3.1245     1.2212    87.7698 </r>
       <r>     3.1856     1.1973    87.8429 </r>
       <r>     3.2467     0.9627    87.9018 </r>
       <r>     3.3078     0.7704    87.9488 </r>
       <r>     3.3689     0.7174    87.9927 </r>
       <r>     3.4300     0.1183    87.9999 </r>
       <r>     3.4911     0.0018    88.0000 </r>
       <r>     3.5522     0.0000    88.0000 </r>
       <r>     3.6133     0.0000    88.0000 </r>
       <r>     3.6744     0.0000    88.0000 </r>
       <r>     3.7355     0.0000    88.0000 </r>
       <r>     3.7966     0.0000    88.0000 </r>
       <r>     3.8577     0.0000    88.0000 </r>
       <r>     3.9189     0.0000    88.0000 </r>
       <r>     3.9800     0.0000    88.0000 </r>
       <r>     4.0411     0.0000    88.0000 </r>
       <r>     4.1022     0.0000    88.0000 </r>
       <r>     4.1633     0.0000    88.0000 </r>
      </set>
     </set>
    </array>
   </total>
  </dos>
 </calculation>
 <structure name="finalpos" >
  <crystal>
   <varray name="basis" >
    <v>       3.50344967       0.00000000       0.00000000 </v>
    <v>       0.00000000       6.06808850      -0.00005313 </v>
    <v>       0.00000000      -0.00031650      33.28967697 </v>
   </varray>
   <i name="volume">    707.71332120 </i>
   <varray name="rec_basis" >
    <v>       0.28543296       0.00000000       0.00000000 </v>
    <v>       0.00000000       0.16479654       0.00000157 </v>
    <v>       0.00000000       0.00000026       0.03003934 </v>
   </varray>
  </crystal>
  <varray name="positions" >
   <v>       0.00000000       0.66661351       0.16398651 </v>
   <v>      -0.00000000       0.66659993       0.05599643 </v>
   <v>       0.50000000       0.16661351       0.16398651 </v>
   <v>       0.50000000       0.16659993       0.05599643 </v>
   <v>       0.00000000       0.33340007       0.38247914 </v>
   <v>      -0.00000000       0.33338649       0.27448906 </v>
   <v>       0.50000000       0.83340007       0.38247914 </v>
   <v>       0.50000000       0.83338649       0.27448906 </v>
   <v>       0.00000000      -0.00005361       0.11004466 </v>
   <v>       0.50000000       0.49994639       0.11004466 </v>
   <v>      -0.00000000       0.00005361       0.32843091 </v>
   <v>       0.50000000       0.50005361       0.32843091 </v>
  </varray>
 </structure>
</modeling>
