<?xml version="1.0" encoding="ISO-8859-1"?>
<modeling>
 <generator>
  <i name="program" type="string">vasp </i>
  <i name="version" type="string">5.3.5  </i>
  <i name="subversion" type="string">31Mar14 (build Mar 18 2017 11:34:20) complex                          parallel </i>
  <i name="platform" type="string">LinuxIFC </i>
  <i name="date" type="string">2018 02 12 </i>
  <i name="time" type="string">09:48:46 </i>
 </generator>
 <incar>
  <i type="string" name="SYSTEM"> MoTe2</i>
  <i type="string" name="PREC">accurate</i>
  <i type="string" name="ALGO"> Normal</i>
  <i type="logical" name="ADDGRID"> T  </i>
  <i type="int" name="IBRION">     2</i>
  <i name="EDIFF">      0.00001000</i>
  <i type="int" name="NSW">  1000</i>
  <i type="int" name="ISIF">     2</i>
  <i type="int" name="ISYM">     0</i>
  <i name="ENCUT">    400.00000000</i>
  <i name="POTIM">      0.50000000</i>
  <i type="logical" name="LREAL"> F  </i>
  <i type="int" name="ISMEAR">     0</i>
  <i name="SIGMA">      0.05000000</i>
  <i type="int" name="NWRITE">     1</i>
  <i type="logical" name="LWAVE"> F  </i>
  <i type="logical" name="LCHARG"> F  </i>
 </incar>
 <kpoints>
  <generation param="Monkhorst-Pack">
   <v type="int" name="divisions">       4        4        1 </v>
   <v name="usershift">      0.00000000       0.00000000       0.00000000 </v>
   <v name="genvec1">      0.25000000       0.00000000       0.00000000 </v>
   <v name="genvec2">      0.00000000       0.25000000       0.00000000 </v>
   <v name="genvec3">      0.00000000       0.00000000       1.00000000 </v>
   <v name="shift">      0.50000000       0.50000000       0.00000000 </v>
  </generation>
  <varray name="kpointlist" >
   <v>       0.12500000       0.12500000       0.00000000 </v>
   <v>       0.37500000       0.12500000       0.00000000 </v>
   <v>      -0.37500000       0.12500000       0.00000000 </v>
   <v>      -0.12500000       0.12500000       0.00000000 </v>
   <v>       0.12500000       0.37500000       0.00000000 </v>
   <v>       0.37500000       0.37500000       0.00000000 </v>
   <v>      -0.37500000       0.37500000       0.00000000 </v>
   <v>      -0.12500000       0.37500000       0.00000000 </v>
  </varray>
  <varray name="weights" >
   <v>       0.12500000 </v>
   <v>       0.12500000 </v>
   <v>       0.12500000 </v>
   <v>       0.12500000 </v>
   <v>       0.12500000 </v>
   <v>       0.12500000 </v>
   <v>       0.12500000 </v>
   <v>       0.12500000 </v>
  </varray>
 </kpoints>
 <parameters>
  <separator name="general" >
   <i type="string" name="SYSTEM">MoTe2</i>
   <i type="logical" name="LCOMPAT"> F  </i>
  </separator>
  <separator name="electronic" >
   <i type="string" name="PREC">accura</i>
   <i name="ENMAX">    400.00000000</i>
   <i name="ENAUG">    368.79200000</i>
   <i name="EDIFF">      0.00001000</i>
   <i type="int" name="IALGO">    38</i>
   <i type="int" name="IWAVPR">    11</i>
   <i type="int" name="NBANDS">   176</i>
   <i name="NELECT">    276.00000000</i>
   <i type="int" name="TURBO">     0</i>
   <i type="int" name="IRESTART">     0</i>
   <i type="int" name="NREBOOT">     0</i>
   <i type="int" name="NMIN">     0</i>
   <i name="EREF">      0.00000000</i>
   <separator name="electronic smearing" >
    <i type="int" name="ISMEAR">     0</i>
    <i name="SIGMA">      0.05000000</i>
    <i name="KSPACING">      0.50000000</i>
    <i type="logical" name="KGAMMA"> T  </i>
   </separator>
   <separator name="electronic projectors" >
    <i type="logical" name="LREAL"> F  </i>
    <v name="ROPT">      0.00000000      0.00000000</v>
    <i type="int" name="LMAXPAW">  -100</i>
    <i type="int" name="LMAXMIX">     2</i>
    <i type="logical" name="NLSPLINE"> F  </i>
   </separator>
   <separator name="electronic startup" >
    <i type="int" name="ISTART">     0</i>
    <i type="int" name="ICHARG">     2</i>
    <i type="int" name="INIWAV">     1</i>
   </separator>
   <separator name="electronic spin" >
    <i type="int" name="ISPIN">     1</i>
    <i type="logical" name="LNONCOLLINEAR"> F  </i>
    <v name="MAGMOM">      1.00000000      1.00000000      1.00000000      1.00000000      1.00000000      1.00000000      1.00000000      1.00000000      1.00000000      1.00000000      1.00000000      1.00000000      1.00000000      1.00000000      1.00000000      1.00000000      1.00000000      1.00000000      1.00000000      1.00000000
      1.00000000      1.00000000      1.00000000      1.00000000      1.00000000      1.00000000      1.00000000      1.00000000      1.00000000      1.00000000      1.00000000      1.00000000      1.00000000      1.00000000      1.00000000      1.00000000      1.00000000      1.00000000      1.00000000      1.00000000
      1.00000000      1.00000000      1.00000000      1.00000000      1.00000000      1.00000000</v>
    <i name="NUPDOWN">     -1.00000000</i>
    <i type="logical" name="LSORBIT"> F  </i>
    <v name="SAXIS">      0.00000000      0.00000000      1.00000000</v>
    <i type="logical" name="LSPIRAL"> F  </i>
    <v name="QSPIRAL">      0.00000000      0.00000000      0.00000000</v>
    <i type="logical" name="LZEROZ"> F  </i>
   </separator>
   <separator name="electronic exchange-correlation" >
    <i type="logical" name="LASPH"> F  </i>
    <i type="logical" name="LMETAGGA"> F  </i>
   </separator>
   <separator name="electronic convergence" >
    <i type="int" name="NELM">    60</i>
    <i type="int" name="NELMDL">     0</i>
    <i type="int" name="NELMIN">     2</i>
    <i name="ENINI">    400.00000000</i>
    <separator name="electronic convergence detail" >
     <i type="logical" name="LDIAG"> T  </i>
     <i type="logical" name="LSUBROT"> F  </i>
     <i name="WEIMIN">      0.00100000</i>
     <i name="EBREAK">      0.00000001</i>
     <i name="DEPER">      0.30000000</i>
     <i type="int" name="NRMM">     4</i>
     <i name="TIME">      0.40000000</i>
    </separator>
   </separator>
   <separator name="electronic mixer" >
    <i name="AMIX">      0.40000000</i>
    <i name="BMIX">      1.00000000</i>
    <i name="AMIN">      0.10000000</i>
    <i name="AMIX_MAG">      1.60000000</i>
    <i name="BMIX_MAG">      1.00000000</i>
    <separator name="electronic mixer details" >
     <i type="int" name="IMIX">     4</i>
     <i type="int" name="MAXMIX">   -45</i>
     <i name="WC">    100.00000000</i>
     <i type="int" name="INIMIX">     1</i>
     <i type="int" name="MIXPRE">     1</i>
     <i type="int" name="MREMOVE">     5</i>
    </separator>
   </separator>
   <separator name="electronic dipolcorrection" >
    <i type="logical" name="LDIPOL"> F  </i>
    <i type="logical" name="LMONO"> F  </i>
    <i type="int" name="IDIPOL">     0</i>
    <i name="EPSILON">      1.00000000</i>
    <v name="DIPOL">   -100.00000000   -100.00000000   -100.00000000</v>
    <i name="EFIELD">      0.00000000</i>
   </separator>
  </separator>
  <separator name="grids" >
   <i type="int" name="NGX">    90</i>
   <i type="int" name="NGY">    84</i>
   <i type="int" name="NGZ">   108</i>
   <i type="int" name="NGXF">   180</i>
   <i type="int" name="NGYF">   168</i>
   <i type="int" name="NGZF">   216</i>
   <i type="logical" name="ADDGRID"> T  </i>
  </separator>
  <separator name="ionic" >
   <i type="int" name="NSW">  1000</i>
   <i type="int" name="IBRION">     2</i>
   <i type="int" name="ISIF">     2</i>
   <i name="PSTRESS">      0.00000000</i>
   <i name="EDIFFG">      0.00010000</i>
   <i type="int" name="NFREE">     1</i>
   <i name="POTIM">      0.50000000</i>
   <i name="SMASS">     -3.00000000</i>
   <i name="SCALEE">      1.00000000</i>
  </separator>
  <separator name="ionic md" >
   <i name="TEBEG">      0.00010000</i>
   <i name="TEEND">      0.00010000</i>
   <i type="int" name="NBLOCK">     1</i>
   <i type="int" name="KBLOCK">  1000</i>
   <i type="int" name="NPACO">   256</i>
   <i name="APACO">     16.00000000</i>
  </separator>
  <separator name="symmetry" >
   <i type="int" name="ISYM">     0</i>
   <i name="SYMPREC">      0.00001000</i>
  </separator>
  <separator name="dos" >
   <i type="logical" name="LORBIT"> F  </i>
   <v name="RWIGS">     -1.00000000     -1.00000000</v>
   <i type="int" name="NEDOS">   301</i>
   <i name="EMIN">     10.00000000</i>
   <i name="EMAX">    -10.00000000</i>
   <i name="EFERMI">      0.00000000</i>
  </separator>
  <separator name="writing" >
   <i type="int" name="NWRITE">     1</i>
   <i type="logical" name="LWAVE"> F  </i>
   <i type="logical" name="LCHARG"> F  </i>
   <i type="logical" name="LPARD"> F  </i>
   <i type="logical" name="LVTOT"> F  </i>
   <i type="logical" name="LVHAR"> F  </i>
   <i type="logical" name="LELF"> F  </i>
   <i type="logical" name="LOPTICS"> F  </i>
   <v name="STM">      0.00000000      0.00000000      0.00000000      0.00000000      0.00000000      0.00000000      0.00000000</v>
  </separator>
  <separator name="performance" >
   <i type="int" name="NPAR">    16</i>
   <i type="int" name="NSIM">     4</i>
   <i type="int" name="NBLK">    -1</i>
   <i type="logical" name="LPLANE"> T  </i>
   <i type="logical" name="LSCALAPACK"> T  </i>
   <i type="logical" name="LSCAAWARE"> F  </i>
   <i type="logical" name="LSCALU"> F  </i>
   <i type="logical" name="LASYNC"> F  </i>
   <i type="logical" name="LORBITALREAL"> F  </i>
  </separator>
  <separator name="miscellaneous" >
   <i type="int" name="IDIOT">     3</i>
   <i type="logical" name="LMUSIC"> F  </i>
   <v name="POMASS">    127.60000000     95.94000000</v>
   <v name="DARWINR">      0.00000000      0.00000000</v>
   <v name="DARWINV">      1.00000000      1.00000000</v>
   <i type="logical" name="LCORR"> T  </i>
  </separator>
  <i type="logical" name="GGA_COMPAT"> T  </i>
  <i type="logical" name="LBERRY"> F  </i>
  <i type="int" name="ICORELEVEL">     0</i>
  <i type="logical" name="LDAU"> F  </i>
  <i type="int" name="I_CONSTRAINED_M">     0</i>
  <separator name="electronic exchange-correlation" >
   <i type="string" name="GGA">--</i>
   <i type="int" name="VOSKOWN">     0</i>
   <i type="logical" name="LHFCALC"> F  </i>
   <i type="string" name="PRECFOCK"></i>
   <i type="logical" name="LSYMGRAD"> F  </i>
   <i type="logical" name="LHFONE"> F  </i>
   <i type="logical" name="LRHFCALC"> F  </i>
   <i type="logical" name="LTHOMAS"> F  </i>
   <i type="logical" name="LMODELHF"> F  </i>
   <i name="ENCUT4O">     -1.00000000</i>
   <i type="int" name="EXXOEP">     0</i>
   <i type="int" name="FOURORBIT">     0</i>
   <i name="AEXX">      0.00000000</i>
   <i name="HFALPHA">      0.00000000</i>
   <i name="MCALPHA">      0.00000000</i>
   <i name="ALDAX">      1.00000000</i>
   <i name="AGGAX">      1.00000000</i>
   <i name="ALDAC">      1.00000000</i>
   <i name="AGGAC">      1.00000000</i>
   <i type="int" name="NKREDX">     1</i>
   <i type="int" name="NKREDY">     1</i>
   <i type="int" name="NKREDZ">     1</i>
   <i type="logical" name="SHIFTRED"> F  </i>
   <i type="logical" name="ODDONLY"> F  </i>
   <i type="logical" name="EVENONLY"> F  </i>
   <i type="int" name="LMAXFOCK">     0</i>
   <i type="int" name="NMAXFOCKAE">     0</i>
   <i type="logical" name="LFOCKAEDFT"> F  </i>
   <i name="HFSCREEN">      0.00000000</i>
   <i name="HFSCREENC">      0.00000000</i>
   <i type="int" name="NBANDSGWLOW">     0</i>
  </separator>
  <separator name="vdW DFT" >
   <i type="logical" name="LUSE_VDW"> F  </i>
   <i name="Zab_VDW">     -0.84910000</i>
   <i name="PARAM1">      0.12340000</i>
   <i name="PARAM2">      1.00000000</i>
   <i name="PARAM3">      0.00000000</i>
  </separator>
  <separator name="model GW" >
   <i type="int" name="MODEL_GW">     0</i>
   <i name="MODEL_EPS0">     36.70094272</i>
   <i name="MODEL_ALPHA">      1.00000000</i>
  </separator>
  <separator name="linear response parameters" >
   <i type="logical" name="LEPSILON"> F  </i>
   <i type="logical" name="LRPA"> F  </i>
   <i type="logical" name="LNABLA"> F  </i>
   <i type="logical" name="LVEL"> F  </i>
   <i type="int" name="KINTER">     0</i>
   <i name="CSHIFT">      0.10000000</i>
   <i name="OMEGAMAX">     -1.00000000</i>
   <i name="DEG_THRESHOLD">      0.00200000</i>
  </separator>
  <separator name="orbital magnetization" >
   <i type="logical" name="NUCIND"> F  </i>
   <v name="MAGPOS">      0.00000000      0.00000000      0.00000000</v>
   <i type="logical" name="LNICSALL"> T  </i>
   <i type="logical" name="ORBITALMAG"> F  </i>
   <i type="logical" name="LMAGBLOCH"> F  </i>
   <i type="logical" name="LCHIMAG"> F  </i>
   <i type="logical" name="LGAUGE"> T  </i>
   <i type="int" name="MAGATOM">     0</i>
   <v name="MAGDIPOL">      0.00000000      0.00000000      0.00000000</v>
   <v name="AVECCONST">      0.00000000      0.00000000      0.00000000</v>
  </separator>
  <separator name="response functions" >
   <i type="logical" name="LADDER"> F  </i>
   <i type="logical" name="LFXC"> F  </i>
   <i type="logical" name="LHARTREE"> T  </i>
   <i type="int" name="IBSE">     0</i>
   <i type="logical" name="LTCTE"> F  </i>
   <i type="logical" name="LTETE"> F  </i>
   <i type="logical" name="LTRIPLET"> F  </i>
   <i type="logical" name="LFXCEPS"> F  </i>
   <i type="logical" name="LFXHEG"> F  </i>
   <i type="logical" name="L2ORDER"> F  </i>
   <i type="logical" name="LUSEW"> F  </i>
   <i name="ENCUTGW">     -2.00000000</i>
   <i name="ENCUTGWSOFT">     -2.00000000</i>
   <i name="ENCUTLF">     -1.00000000</i>
   <i type="int" name="LMAXMP2">    -1</i>
   <i name="SCISSOR">      0.00000000</i>
   <i type="int" name="NOMEGA">     0</i>
   <i type="int" name="NOMEGAR">     0</i>
   <i type="int" name="NBANDSGW">    -1</i>
   <i type="int" name="NBANDSO">    -1</i>
   <i type="int" name="NBANDSV">    -1</i>
   <i type="int" name="NELM">     1</i>
   <i type="int" name="DIM">     3</i>
   <i type="int" name="ANTIRES">     0</i>
   <i name="OMEGAMAX">    -30.00000000</i>
   <i name="OMEGAMIN">    -30.00000000</i>
   <i name="OMEGATL">   -200.00000000</i>
   <i type="int" name="OMEGAGRID">     0</i>
   <i name="CSHIFT">     -0.10000000</i>
   <i type="logical" name="SELFENERGY"> F  </i>
   <i type="logical" name="LSPECTRAL"> F  </i>
   <i type="logical" name="ODDONLYGW"> F  </i>
   <i type="logical" name="EVENONLYGW"> F  </i>
   <i type="int" name="NKREDLFX">     1</i>
   <i type="int" name="NKREDLFY">     1</i>
   <i type="int" name="NKREDLFZ">     1</i>
   <i type="int" name="MAXMEM">  1800</i>
   <i type="int" name="TELESCOPE">     0</i>
   <i type="int" name="TAUPAR">     1</i>
  </separator>
  <separator name="External order field" >
   <i name="OFIELD_KAPPA">      0.00000000</i>
   <v name="OFIELD_K">      0.00000000      0.00000000      0.00000000</v>
   <i name="OFIELD_Q6_NEAR">      0.00000000</i>
   <i name="OFIELD_Q6_FAR">      0.00000000</i>
   <i name="OFIELD_A">      0.00000000</i>
  </separator>
 </parameters>
 <atominfo>
  <atoms>      46 </atoms>
  <types>       2 </types>
  <array name="atoms" >
   <dimension dim="1">ion</dimension>
   <field type="string">element</field>
   <field type="int">atomtype</field>
   <set>
    <rc><c>Te</c><c>   1</c></rc>
    <rc><c>Te</c><c>   1</c></rc>
    <rc><c>Te</c><c>   1</c></rc>
    <rc><c>Te</c><c>   1</c></rc>
    <rc><c>Te</c><c>   1</c></rc>
    <rc><c>Te</c><c>   1</c></rc>
    <rc><c>Te</c><c>   1</c></rc>
    <rc><c>Te</c><c>   1</c></rc>
    <rc><c>Te</c><c>   1</c></rc>
    <rc><c>Te</c><c>   1</c></rc>
    <rc><c>Te</c><c>   1</c></rc>
    <rc><c>Te</c><c>   1</c></rc>
    <rc><c>Te</c><c>   1</c></rc>
    <rc><c>Te</c><c>   1</c></rc>
    <rc><c>Te</c><c>   1</c></rc>
    <rc><c>Te</c><c>   1</c></rc>
    <rc><c>Te</c><c>   1</c></rc>
    <rc><c>Te</c><c>   1</c></rc>
    <rc><c>Te</c><c>   1</c></rc>
    <rc><c>Te</c><c>   1</c></rc>
    <rc><c>Te</c><c>   1</c></rc>
    <rc><c>Te</c><c>   1</c></rc>
    <rc><c>Te</c><c>   1</c></rc>
    <rc><c>Te</c><c>   1</c></rc>
    <rc><c>Te</c><c>   1</c></rc>
    <rc><c>Te</c><c>   1</c></rc>
    <rc><c>Te</c><c>   1</c></rc>
    <rc><c>Te</c><c>   1</c></rc>
    <rc><c>Te</c><c>   1</c></rc>
    <rc><c>Te</c><c>   1</c></rc>
    <rc><c>Mo</c><c>   2</c></rc>
    <rc><c>Mo</c><c>   2</c></rc>
    <rc><c>Mo</c><c>   2</c></rc>
    <rc><c>Mo</c><c>   2</c></rc>
    <rc><c>Mo</c><c>   2</c></rc>
    <rc><c>Mo</c><c>   2</c></rc>
    <rc><c>Mo</c><c>   2</c></rc>
    <rc><c>Mo</c><c>   2</c></rc>
    <rc><c>Mo</c><c>   2</c></rc>
    <rc><c>Mo</c><c>   2</c></rc>
    <rc><c>Mo</c><c>   2</c></rc>
    <rc><c>Mo</c><c>   2</c></rc>
    <rc><c>Mo</c><c>   2</c></rc>
    <rc><c>Mo</c><c>   2</c></rc>
    <rc><c>Mo</c><c>   2</c></rc>
    <rc><c>Mo</c><c>   2</c></rc>
   </set>
  </array>
  <array name="atomtypes" >
   <dimension dim="1">type</dimension>
   <field type="int">atomspertype</field>
   <field type="string">element</field>
   <field>mass</field>
   <field>valence</field>
   <field type="string">pseudopotential</field>
   <set>
    <rc><c>  30</c><c>Te</c><c>    127.60000000</c><c>      6.00000000</c><c>  PAW_PBE Te 08Apr2002                  </c></rc>
    <rc><c>  16</c><c>Mo</c><c>     95.94000000</c><c>      6.00000000</c><c>  PAW_PBE Mo 08Apr2002                  </c></rc>
   </set>
  </array>
 </atominfo>
 <structure name="initialpos" >
  <crystal>
   <varray name="basis" >
    <v>      13.80799961       0.00000000       0.00000000 </v>
    <v>       0.00000000      12.73600006       0.00000000 </v>
    <v>       0.00000000       0.00000000      16.00000000 </v>
   </varray>
   <i name="volume">   2813.73894219 </i>
   <varray name="rec_basis" >
    <v>       0.07242179       0.00000000       0.00000000 </v>
    <v>       0.00000000       0.07851759       0.00000000 </v>
    <v>       0.00000000       0.00000000       0.06250000 </v>
   </varray>
  </crystal>
  <varray name="positions" >
   <v>       0.62500000       0.05081658       0.62913311 </v>
   <v>       0.37500000       0.05081658       0.62913311 </v>
   <v>       0.87500000       0.05081658       0.62913311 </v>
   <v>       0.12500000       0.55081660       0.62913311 </v>
   <v>       0.62500000       0.55081660       0.62913311 </v>
   <v>       0.37500000       0.55081660       0.62913311 </v>
   <v>       0.87500000       0.55081660       0.62913311 </v>
   <v>       0.12500000       0.37457836       0.40758437 </v>
   <v>       0.62500000       0.37457836       0.40758437 </v>
   <v>       0.37500000       0.37457836       0.40758437 </v>
   <v>       0.87500000       0.37457836       0.40758437 </v>
   <v>       0.12500000       0.87457836       0.40758437 </v>
   <v>       0.37500000       0.87457836       0.40758437 </v>
   <v>       0.87500000       0.87457836       0.40758437 </v>
   <v>       0.00000000       0.12870525       0.37086561 </v>
   <v>       0.50000000       0.12870525       0.37086561 </v>
   <v>       0.25000000       0.12870525       0.37086561 </v>
   <v>       0.75000000       0.12870525       0.37086561 </v>
   <v>       0.00000000       0.62870526       0.37086561 </v>
   <v>       0.50000000       0.62870526       0.37086561 </v>
   <v>       0.25000000       0.62870526       0.37086561 </v>
   <v>       0.75000000       0.62870526       0.37086561 </v>
   <v>       0.00000000       0.30494031       0.59241623 </v>
   <v>       0.50000000       0.30494031       0.59241623 </v>
   <v>       0.25000000       0.30494031       0.59241623 </v>
   <v>       0.75000000       0.30494031       0.59241623 </v>
   <v>       0.00000000       0.80494034       0.59241623 </v>
   <v>       0.50000000       0.80494034       0.59241623 </v>
   <v>       0.25000000       0.80494034       0.59241623 </v>
   <v>       0.75000000       0.80494034       0.59241623 </v>
   <v>       0.12500000       0.18029837       0.49406749 </v>
   <v>       0.62500000       0.18029837       0.49406749 </v>
   <v>       0.37500000       0.18029837       0.49406749 </v>
   <v>       0.87500000       0.18029837       0.49406749 </v>
   <v>       0.12500000       0.68029839       0.49406749 </v>
   <v>       0.62500000       0.68029839       0.49406749 </v>
   <v>       0.37500000       0.68029839       0.49406749 </v>
   <v>       0.87500000       0.68029839       0.49406749 </v>
   <v>       0.00000000       0.99921954       0.50593311 </v>
   <v>       0.50000000       0.99921954       0.50593311 </v>
   <v>       0.25000000       0.99921954       0.50593311 </v>
   <v>       0.75000000       0.99921954       0.50593311 </v>
   <v>       0.00000000       0.49921954       0.50593311 </v>
   <v>       0.50000000       0.49921954       0.50593311 </v>
   <v>       0.25000000       0.49921954       0.50593311 </v>
   <v>       0.75000000       0.49921954       0.50593311 </v>
  </varray>
 </structure>
 <calculation>
  <scstep>
   <time name="dav">    5.94    5.94</time>
   <time name="total">    6.30    6.32</time>
   <energy>
    <i name="alphaZ">    192.28718434 </i>
    <i name="ewald">  12638.35362635 </i>
    <i name="hartreedc"> -22403.28913040 </i>
    <i name="XCdc">  -1817.03415100 </i>
    <i name="pawpsdc">  10481.65423230 </i>
    <i name="pawaedc">  -8188.45764070 </i>
    <i name="eentropy">     -0.02998164 </i>
    <i name="bandstr">    496.73600376 </i>
    <i name="atom">  10178.37189613 </i>
    <i name="e_fr_energy">   1578.59203914 </i>
    <i name="e_wo_entrp">   1578.62202078 </i>
    <i name="e_0_energy">   1578.60702996 </i>
   </energy>
  </scstep>
  <scstep>
   <time name="dav">    7.46    7.48</time>
   <time name="total">    7.46    7.48</time>
   <energy>
    <i name="e_fr_energy">    -79.50506709 </i>
    <i name="e_wo_entrp">    -79.49057730 </i>
    <i name="e_0_energy">    -79.49782219 </i>
   </energy>
  </scstep>
  <scstep>
   <time name="dav">    7.09    7.20</time>
   <time name="total">    7.09    7.21</time>
   <energy>
    <i name="e_fr_energy">   -276.63999234 </i>
    <i name="e_wo_entrp">   -276.62818272 </i>
    <i name="e_0_energy">   -276.63408753 </i>
   </energy>
  </scstep>
  <scstep>
   <time name="dav">    8.04    8.04</time>
   <time name="total">    8.05    8.05</time>
   <energy>
    <i name="e_fr_energy">   -287.91041698 </i>
    <i name="e_wo_entrp">   -287.90201247 </i>
    <i name="e_0_energy">   -287.90621473 </i>
   </energy>
  </scstep>
  <scstep>
   <time name="dav">    8.14    8.14</time>
   <time name="total">    8.55    8.55</time>
   <energy>
    <i name="e_fr_energy">   -288.24364735 </i>
    <i name="e_wo_entrp">   -288.23519376 </i>
    <i name="e_0_energy">   -288.23942055 </i>
   </energy>
  </scstep>
  <scstep>
   <time name="dav">    7.45    7.47</time>
   <time name="total">    8.17    8.19</time>
   <energy>
    <i name="e_fr_energy">   -280.97149461 </i>
    <i name="e_wo_entrp">   -280.94694843 </i>
    <i name="e_0_energy">   -280.95922152 </i>
   </energy>
  </scstep>
  <scstep>
   <time name="dav">    7.62    7.62</time>
   <time name="total">    8.36    8.36</time>
   <energy>
    <i name="e_fr_energy">   -283.90018969 </i>
    <i name="e_wo_entrp">   -283.87177737 </i>
    <i name="e_0_energy">   -283.88598353 </i>
   </energy>
  </scstep>
  <scstep>
   <time name="dav">    7.64    7.64</time>
   <time name="total">    8.36    8.36</time>
   <energy>
    <i name="e_fr_energy">   -277.68949743 </i>
    <i name="e_wo_entrp">   -277.66822000 </i>
    <i name="e_0_energy">   -277.67885871 </i>
   </energy>
  </scstep>
  <scstep>
   <time name="dav">    7.59    7.59</time>
   <time name="total">    8.32    8.32</time>
   <energy>
    <i name="e_fr_energy">   -276.74552252 </i>
    <i name="e_wo_entrp">   -276.73530073 </i>
    <i name="e_0_energy">   -276.74041163 </i>
   </energy>
  </scstep>
  <scstep>
   <time name="dav">    7.03    7.05</time>
   <time name="total">    7.75    7.77</time>
   <energy>
    <i name="e_fr_energy">   -276.59139545 </i>
    <i name="e_wo_entrp">   -276.57189787 </i>
    <i name="e_0_energy">   -276.58164666 </i>
   </energy>
  </scstep>
  <scstep>
   <time name="dav">    7.56    7.56</time>
   <time name="total">    8.27    8.28</time>
   <energy>
    <i name="e_fr_energy">   -276.58003413 </i>
    <i name="e_wo_entrp">   -276.56157013 </i>
    <i name="e_0_energy">   -276.57080213 </i>
   </energy>
  </scstep>
  <scstep>
   <time name="dav">    7.42    7.43</time>
   <time name="total">    8.20    8.20</time>
   <energy>
    <i name="e_fr_energy">   -276.55160707 </i>
    <i name="e_wo_entrp">   -276.52821292 </i>
    <i name="e_0_energy">   -276.53990999 </i>
   </energy>
  </scstep>
  <scstep>
   <time name="dav">    7.49    7.49</time>
   <time name="total">    8.21    8.21</time>
   <energy>
    <i name="e_fr_energy">   -276.54620188 </i>
    <i name="e_wo_entrp">   -276.52889103 </i>
    <i name="e_0_energy">   -276.53754646 </i>
   </energy>
  </scstep>
  <scstep>
   <time name="dav">    7.83    7.85</time>
   <time name="total">    8.55    8.57</time>
   <energy>
    <i name="e_fr_energy">   -276.53409545 </i>
    <i name="e_wo_entrp">   -276.51068689 </i>
    <i name="e_0_energy">   -276.52239117 </i>
   </energy>
  </scstep>
  <scstep>
   <time name="dav">    8.00    8.00</time>
   <time name="total">    8.71    8.72</time>
   <energy>
    <i name="e_fr_energy">   -276.52919795 </i>
    <i name="e_wo_entrp">   -276.50887030 </i>
    <i name="e_0_energy">   -276.51903413 </i>
   </energy>
  </scstep>
  <scstep>
   <time name="dav">    7.36    7.37</time>
   <time name="total">    8.08    8.09</time>
   <energy>
    <i name="e_fr_energy">   -276.52714793 </i>
    <i name="e_wo_entrp">   -276.50473061 </i>
    <i name="e_0_energy">   -276.51593927 </i>
   </energy>
  </scstep>
  <scstep>
   <time name="dav">    7.27    7.27</time>
   <time name="total">    8.00    8.00</time>
   <energy>
    <i name="e_fr_energy">   -276.52519877 </i>
    <i name="e_wo_entrp">   -276.50420276 </i>
    <i name="e_0_energy">   -276.51470076 </i>
   </energy>
  </scstep>
  <scstep>
   <time name="dav">    7.43    7.45</time>
   <time name="total">    8.14    8.17</time>
   <energy>
    <i name="e_fr_energy">   -276.52355052 </i>
    <i name="e_wo_entrp">   -276.50227112 </i>
    <i name="e_0_energy">   -276.51291082 </i>
   </energy>
  </scstep>
  <scstep>
   <time name="dav">    7.44    7.44</time>
   <time name="total">    8.15    8.16</time>
   <energy>
    <i name="e_fr_energy">   -276.52316077 </i>
    <i name="e_wo_entrp">   -276.50171957 </i>
    <i name="e_0_energy">   -276.51244017 </i>
   </energy>
  </scstep>
  <scstep>
   <time name="dav">    7.73    7.73</time>
   <time name="total">    8.44    8.44</time>
   <energy>
    <i name="e_fr_energy">   -276.52316640 </i>
    <i name="e_wo_entrp">   -276.50196989 </i>
    <i name="e_0_energy">   -276.51256814 </i>
   </energy>
  </scstep>
  <scstep>
   <time name="dav">    7.06    7.08</time>
   <time name="total">    7.77    7.79</time>
   <energy>
    <i name="e_fr_energy">   -276.52394938 </i>
    <i name="e_wo_entrp">   -276.50256984 </i>
    <i name="e_0_energy">   -276.51325961 </i>
   </energy>
  </scstep>
  <scstep>
   <time name="dav">    7.51    7.51</time>
   <time name="total">    8.23    8.23</time>
   <energy>
    <i name="e_fr_energy">   -276.52489626 </i>
    <i name="e_wo_entrp">   -276.50361368 </i>
    <i name="e_0_energy">   -276.51425497 </i>
   </energy>
  </scstep>
  <scstep>
   <time name="dav">    6.30    6.30</time>
   <time name="total">    7.01    7.02</time>
   <energy>
    <i name="e_fr_energy">   -276.52566443 </i>
    <i name="e_wo_entrp">   -276.50436754 </i>
    <i name="e_0_energy">   -276.51501599 </i>
   </energy>
  </scstep>
  <scstep>
   <time name="dav">    6.18    6.18</time>
   <time name="total">    6.90    6.91</time>
   <energy>
    <i name="e_fr_energy">   -276.52656715 </i>
    <i name="e_wo_entrp">   -276.50525888 </i>
    <i name="e_0_energy">   -276.51591301 </i>
   </energy>
  </scstep>
  <scstep>
   <time name="dav">    4.99    4.99</time>
   <time name="total">    5.72    5.72</time>
   <energy>
    <i name="e_fr_energy">   -276.52711630 </i>
    <i name="e_wo_entrp">   -276.50581609 </i>
    <i name="e_0_energy">   -276.51646620 </i>
   </energy>
  </scstep>
  <scstep>
   <time name="dav">    4.83    4.85</time>
   <time name="total">    5.54    5.57</time>
   <energy>
    <i name="e_fr_energy">   -276.52745791 </i>
    <i name="e_wo_entrp">   -276.50613370 </i>
    <i name="e_0_energy">   -276.51679580 </i>
   </energy>
  </scstep>
  <scstep>
   <time name="dav">    4.80    4.80</time>
   <time name="total">    5.52    5.52</time>
   <energy>
    <i name="e_fr_energy">   -276.52761563 </i>
    <i name="e_wo_entrp">   -276.50628287 </i>
    <i name="e_0_energy">   -276.51694925 </i>
   </energy>
  </scstep>
  <scstep>
   <time name="dav">    4.60    4.60</time>
   <time name="total">    5.31    5.32</time>
   <energy>
    <i name="e_fr_energy">   -276.52767645 </i>
    <i name="e_wo_entrp">   -276.50634234 </i>
    <i name="e_0_energy">   -276.51700940 </i>
   </energy>
  </scstep>
  <scstep>
   <time name="dav">    4.62    4.62</time>
   <time name="total">    5.34    5.34</time>
   <energy>
    <i name="e_fr_energy">   -276.52772679 </i>
    <i name="e_wo_entrp">   -276.50640194 </i>
    <i name="e_0_energy">   -276.51706437 </i>
   </energy>
  </scstep>
  <scstep>
   <time name="dav">    4.43    4.43</time>
   <time name="total">    4.73    4.73</time>
   <energy>
    <i name="alphaZ">    192.28718434 </i>
    <i name="ewald">  12638.35362635 </i>
    <i name="hartreedc"> -22550.45626896 </i>
    <i name="XCdc">  -1805.37289627 </i>
    <i name="pawpsdc">  20309.93313636 </i>
    <i name="pawaedc"> -18037.43173509 </i>
    <i name="eentropy">     -0.02132276 </i>
    <i name="bandstr">  -1202.19135624 </i>
    <i name="atom">  10178.37189613 </i>
    <i name="e_fr_energy">   -276.52773614 </i>
    <i name="e_wo_entrp">   -276.50641338 </i>
    <i name="e_0_energy">   -276.51707476 </i>
   </energy>
  </scstep>
  <structure>
   <crystal>
    <varray name="basis" >
     <v>      13.80799961       0.00000000       0.00000000 </v>
     <v>       0.00000000      12.73600006       0.00000000 </v>
     <v>       0.00000000       0.00000000      16.00000000 </v>
    </varray>
    <i name="volume">   2813.73894219 </i>
    <varray name="rec_basis" >
     <v>       0.07242179       0.00000000       0.00000000 </v>
     <v>       0.00000000       0.07851759       0.00000000 </v>
     <v>       0.00000000       0.00000000       0.06250000 </v>
    </varray>
   </crystal>
   <varray name="positions" >
    <v>       0.62500000       0.05081658       0.62913311 </v>
    <v>       0.37500000       0.05081658       0.62913311 </v>
    <v>       0.87500000       0.05081658       0.62913311 </v>
    <v>       0.12500000       0.55081660       0.62913311 </v>
    <v>       0.62500000       0.55081660       0.62913311 </v>
    <v>       0.37500000       0.55081660       0.62913311 </v>
    <v>       0.87500000       0.55081660       0.62913311 </v>
    <v>       0.12500000       0.37457836       0.40758437 </v>
    <v>       0.62500000       0.37457836       0.40758437 </v>
    <v>       0.37500000       0.37457836       0.40758437 </v>
    <v>       0.87500000       0.37457836       0.40758437 </v>
    <v>       0.12500000       0.87457836       0.40758437 </v>
    <v>       0.37500000       0.87457836       0.40758437 </v>
    <v>       0.87500000       0.87457836       0.40758437 </v>
    <v>       0.00000000       0.12870525       0.37086561 </v>
    <v>       0.50000000       0.12870525       0.37086561 </v>
    <v>       0.25000000       0.12870525       0.37086561 </v>
    <v>       0.75000000       0.12870525       0.37086561 </v>
    <v>       0.00000000       0.62870526       0.37086561 </v>
    <v>       0.50000000       0.62870526       0.37086561 </v>
    <v>       0.25000000       0.62870526       0.37086561 </v>
    <v>       0.75000000       0.62870526       0.37086561 </v>
    <v>       0.00000000       0.30494031       0.59241623 </v>
    <v>       0.50000000       0.30494031       0.59241623 </v>
    <v>       0.25000000       0.30494031       0.59241623 </v>
    <v>       0.75000000       0.30494031       0.59241623 </v>
    <v>       0.00000000       0.80494034       0.59241623 </v>
    <v>       0.50000000       0.80494034       0.59241623 </v>
    <v>       0.25000000       0.80494034       0.59241623 </v>
    <v>       0.75000000       0.80494034       0.59241623 </v>
    <v>       0.12500000       0.18029837       0.49406749 </v>
    <v>       0.62500000       0.18029837       0.49406749 </v>
    <v>       0.37500000       0.18029837       0.49406749 </v>
    <v>       0.87500000       0.18029837       0.49406749 </v>
    <v>       0.12500000       0.68029839       0.49406749 </v>
    <v>       0.62500000       0.68029839       0.49406749 </v>
    <v>       0.37500000       0.68029839       0.49406749 </v>
    <v>       0.87500000       0.68029839       0.49406749 </v>
    <v>       0.00000000       0.99921954       0.50593311 </v>
    <v>       0.50000000       0.99921954       0.50593311 </v>
    <v>       0.25000000       0.99921954       0.50593311 </v>
    <v>       0.75000000       0.99921954       0.50593311 </v>
    <v>       0.00000000       0.49921954       0.50593311 </v>
    <v>       0.50000000       0.49921954       0.50593311 </v>
    <v>       0.25000000       0.49921954       0.50593311 </v>
    <v>       0.75000000       0.49921954       0.50593311 </v>
   </varray>
  </structure>
  <varray name="forces" >
   <v>      -0.00004285      -0.07274733      -0.20050155 </v>
   <v>      -0.38359753      -0.06511322      -0.22188542 </v>
   <v>       0.38367002      -0.06508917      -0.22185641 </v>
   <v>      -0.00000343       0.01059052      -0.03461359 </v>
   <v>       0.00000299       0.05875038      -0.24605960 </v>
   <v>       0.00885667       0.00170800      -0.01657439 </v>
   <v>      -0.00885888       0.00171139      -0.01658466 </v>
   <v>      -0.00000191       0.19627838      -0.01616519 </v>
   <v>      -0.00000074       0.00524575       0.06715982 </v>
   <v>       0.01728475      -0.02642086       0.06844497 </v>
   <v>      -0.01728993      -0.02643079       0.06845408 </v>
   <v>      -0.00001102       0.12260120       0.13600122 </v>
   <v>       0.59106308       0.23291062      -0.12267998 </v>
   <v>      -0.59101584       0.23290413      -0.12269899 </v>
   <v>      -0.03227093      -0.03651337       0.04905436 </v>
   <v>       0.02114889      -0.24021037      -0.00300223 </v>
   <v>       0.03226452      -0.03648893       0.04901264 </v>
   <v>      -0.02114204      -0.24015653      -0.00305013 </v>
   <v>       0.03963412       0.00962828       0.00844891 </v>
   <v>       0.07369992       0.19431179      -0.07707485 </v>
   <v>      -0.03963872       0.00963416       0.00844399 </v>
   <v>      -0.07370037       0.19430839      -0.07706747 </v>
   <v>       0.19864288      -0.17440941       0.00392807 </v>
   <v>       0.02069095      -0.00199157       0.05261318 </v>
   <v>      -0.19864806      -0.17440678       0.00392631 </v>
   <v>      -0.02069145      -0.00199542       0.05260036 </v>
   <v>       0.24557559       0.23797725      -0.01944667 </v>
   <v>       0.24773463       0.07813226      -0.26180626 </v>
   <v>      -0.24557704       0.23795695      -0.01943389 </v>
   <v>      -0.24773818       0.07808521      -0.26177941 </v>
   <v>      -0.00001592      -1.08276218       0.38695529 </v>
   <v>      -0.00000494      -0.60880618      -0.00223609 </v>
   <v>       0.03667656      -0.24312945      -0.00953202 </v>
   <v>      -0.03665756      -0.24309989      -0.00953562 </v>
   <v>       0.00000104      -0.08800008      -0.01139543 </v>
   <v>      -0.00000708       0.07710652       0.57131731 </v>
   <v>       0.11304747      -0.13157585       0.08265937 </v>
   <v>      -0.11305848      -0.13158732       0.08266051 </v>
   <v>       0.83910037       0.51324444      -0.17427222 </v>
   <v>      -0.68515872       0.42079004       0.30559938 </v>
   <v>      -0.83908605       0.51323263      -0.17427359 </v>
   <v>       0.68511603       0.42079790       0.30557588 </v>
   <v>       0.21085933      -0.07228588       0.01393134 </v>
   <v>       0.03897926      -0.00620176      -0.00359330 </v>
   <v>      -0.21086734      -0.07228116       0.01393279 </v>
   <v>      -0.03896407      -0.00620268      -0.00360082 </v>
  </varray>
  <varray name="stress" >
   <v>      -6.34220726      -0.00014792      -0.00005383 </v>
   <v>      -0.00014830      -5.39248907      -0.14053914 </v>
   <v>      -0.00005380      -0.14053906      -1.69428504 </v>
  </varray>
  <energy>
   <i name="e_fr_energy">   -276.52773614 </i>
   <i name="e_wo_entrp">   -276.51707476 </i>
   <i name="e_0_energy">     -0.02132276 </i>
  </energy>
  <time name="totalsc">  236.59  236.95</time>
 </calculation>
 <calculation>
  <scstep>
   <time name="dav">    5.82    5.82</time>
   <time name="total">    6.55    6.55</time>
   <energy>
    <i name="alphaZ">    192.28718434 </i>
    <i name="ewald">  12662.74889945 </i>
    <i name="hartreedc"> -22573.51586301 </i>
    <i name="XCdc">  -1805.24916288 </i>
    <i name="pawpsdc">  20310.00536126 </i>
    <i name="pawaedc"> -18037.50386511 </i>
    <i name="eentropy">     -0.01011673 </i>
    <i name="bandstr">  -1203.94647182 </i>
    <i name="atom">  10178.37189613 </i>
    <i name="e_fr_energy">   -276.81213837 </i>
    <i name="e_wo_entrp">   -276.80202164 </i>
    <i name="e_0_energy">   -276.80708000 </i>
   </energy>
  </scstep>
  <scstep>
   <time name="dav">    6.56    6.55</time>
   <time name="total">    7.27    7.27</time>
   <energy>
    <i name="e_fr_energy">   -276.84975627 </i>
    <i name="e_wo_entrp">   -276.84154320 </i>
    <i name="e_0_energy">   -276.84564974 </i>
   </energy>
  </scstep>
  <scstep>
   <time name="dav">    7.92    7.92</time>
   <time name="total">    8.63    8.63</time>
   <energy>
    <i name="e_fr_energy">   -276.85452977 </i>
    <i name="e_wo_entrp">   -276.84413248 </i>
    <i name="e_0_energy">   -276.84933113 </i>
   </energy>
  </scstep>
  <scstep>
   <time name="dav">    8.51    8.59</time>
   <time name="total">    9.23    9.30</time>
   <energy>
    <i name="e_fr_energy">   -276.84108281 </i>
    <i name="e_wo_entrp">   -276.83195147 </i>
    <i name="e_0_energy">   -276.83651714 </i>
   </energy>
  </scstep>
  <scstep>
   <time name="dav">    7.67    7.67</time>
   <time name="total">    8.39    8.39</time>
   <energy>
    <i name="e_fr_energy">   -276.84247384 </i>
    <i name="e_wo_entrp">   -276.83360674 </i>
    <i name="e_0_energy">   -276.83804029 </i>
   </energy>
  </scstep>
  <scstep>
   <time name="dav">    7.55    7.55</time>
   <time name="total">    8.27    8.27</time>
   <energy>
    <i name="e_fr_energy">   -276.83941124 </i>
    <i name="e_wo_entrp">   -276.83018807 </i>
    <i name="e_0_energy">   -276.83479965 </i>
   </energy>
  </scstep>
  <scstep>
   <time name="dav">    7.24    7.33</time>
   <time name="total">    7.96    8.05</time>
   <energy>
    <i name="e_fr_energy">   -276.83951325 </i>
    <i name="e_wo_entrp">   -276.83040560 </i>
    <i name="e_0_energy">   -276.83495943 </i>
   </energy>
  </scstep>
  <scstep>
   <time name="dav">    7.60    7.60</time>
   <time name="total">    8.36    8.37</time>
   <energy>
    <i name="e_fr_energy">   -276.83940102 </i>
    <i name="e_wo_entrp">   -276.83025546 </i>
    <i name="e_0_energy">   -276.83482824 </i>
   </energy>
  </scstep>
  <scstep>
   <time name="dav">    6.81    6.81</time>
   <time name="total">    7.10    7.11</time>
   <energy>
    <i name="alphaZ">    192.28718434 </i>
    <i name="ewald">  12662.74889945 </i>
    <i name="hartreedc"> -22573.34616108 </i>
    <i name="XCdc">  -1805.22337451 </i>
    <i name="pawpsdc">  20347.67730312 </i>
    <i name="pawaedc"> -18075.37650476 </i>
    <i name="eentropy">     -0.00912248 </i>
    <i name="bandstr">  -1203.96951373 </i>
    <i name="atom">  10178.37189613 </i>
    <i name="e_fr_energy">   -276.83939351 </i>
    <i name="e_wo_entrp">   -276.83027104 </i>
    <i name="e_0_energy">   -276.83483228 </i>
   </energy>
  </scstep>
  <structure>
   <crystal>
    <varray name="basis" >
     <v>      13.80799961       0.00000000       0.00000000 </v>
     <v>       0.00000000      12.73600006       0.00000000 </v>
     <v>       0.00000000       0.00000000      16.00000000 </v>
    </varray>
    <i name="volume">   2813.73894219 </i>
    <varray name="rec_basis" >
     <v>       0.07242179       0.00000000       0.00000000 </v>
     <v>       0.00000000       0.07851759       0.00000000 </v>
     <v>       0.00000000       0.00000000       0.06250000 </v>
    </varray>
   </crystal>
   <varray name="positions" >
    <v>       0.62499985       0.05054102       0.62852856 </v>
    <v>       0.37365978       0.05056994       0.62846408 </v>
    <v>       0.87634047       0.05057003       0.62846417 </v>
    <v>       0.12499999       0.55085671       0.62902874 </v>
    <v>       0.62500001       0.55103914       0.62839119 </v>
    <v>       0.37503094       0.55082307       0.62908313 </v>
    <v>       0.87496905       0.55082308       0.62908310 </v>
    <v>       0.12499999       0.37532184       0.40753563 </v>
    <v>       0.62500000       0.37459823       0.40778687 </v>
    <v>       0.37506039       0.37447828       0.40779074 </v>
    <v>       0.87493959       0.37447824       0.40779077 </v>
    <v>       0.12499996       0.87504276       0.40799444 </v>
    <v>       0.37706507       0.87546060       0.40721447 </v>
    <v>       0.87293510       0.87546057       0.40721441 </v>
    <v>      -0.00011275       0.12856694       0.37101352 </v>
    <v>       0.50007389       0.12779536       0.37085656 </v>
    <v>       0.25011273       0.12856703       0.37101339 </v>
    <v>       0.74992613       0.12779556       0.37085642 </v>
    <v>       0.00013847       0.62874173       0.37089109 </v>
    <v>       0.50025749       0.62944130       0.37063322 </v>
    <v>       0.24986151       0.62874176       0.37089107 </v>
    <v>       0.74974250       0.62944128       0.37063324 </v>
    <v>       0.00069402       0.30427967       0.59242807 </v>
    <v>       0.50007229       0.30493277       0.59257486 </v>
    <v>       0.24930596       0.30427968       0.59242807 </v>
    <v>       0.74992771       0.30493275       0.59257483 </v>
    <v>       0.00085800       0.80584178       0.59235759 </v>
    <v>       0.50086554       0.80523630       0.59162684 </v>
    <v>       0.24914200       0.80584170       0.59235763 </v>
    <v>       0.74913445       0.80523612       0.59162692 </v>
    <v>       0.12499994       0.17619698       0.49523422 </v>
    <v>       0.62499998       0.17799228       0.49406075 </v>
    <v>       0.37512814       0.17937742       0.49403875 </v>
    <v>       0.87487193       0.17937754       0.49403874 </v>
    <v>       0.12500000       0.67996505       0.49403313 </v>
    <v>       0.62499998       0.68059046       0.49579011 </v>
    <v>       0.37539497       0.67979999       0.49431672 </v>
    <v>       0.87460499       0.67979995       0.49431673 </v>
    <v>       0.00293166       0.00116365       0.50540765 </v>
    <v>       0.49760618       0.00081345       0.50685454 </v>
    <v>       0.24706839       0.00116361       0.50540764 </v>
    <v>       0.75239367       0.00081348       0.50685447 </v>
    <v>       0.00073670       0.49894573       0.50597511 </v>
    <v>       0.50013619       0.49919605       0.50592227 </v>
    <v>       0.24926327       0.49894574       0.50597512 </v>
    <v>       0.74986387       0.49919604       0.50592225 </v>
   </varray>
  </structure>
  <varray name="forces" >
   <v>       0.00005441      -0.12435795       0.01320081 </v>
   <v>      -0.50324761      -0.01267526       0.03197753 </v>
   <v>       0.50327804      -0.01270665       0.03182459 </v>
   <v>      -0.00000071      -0.00418896       0.05087430 </v>
   <v>       0.00000289      -0.03535631       0.02829113 </v>
   <v>      -0.01710319      -0.03342420       0.01263431 </v>
   <v>       0.01710181      -0.03342794       0.01264476 </v>
   <v>       0.00000037       0.01852864       0.03138410 </v>
   <v>      -0.00000123      -0.07783300       0.08817227 </v>
   <v>       0.01077875      -0.05052296       0.09141048 </v>
   <v>      -0.01077317      -0.05051789       0.09140352 </v>
   <v>      -0.00004646      -0.02861913      -0.03947816 </v>
   <v>       0.44211292       0.15221749      -0.02995153 </v>
   <v>      -0.44212729       0.15228428      -0.02986969 </v>
   <v>       0.00362526       0.04578161      -0.08351603 </v>
   <v>      -0.01456025      -0.18537698      -0.04748195 </v>
   <v>      -0.00362109       0.04585683      -0.08358684 </v>
   <v>       0.01455972      -0.18541840      -0.04740813 </v>
   <v>      -0.00956071       0.01288586       0.03337408 </v>
   <v>       0.11504034       0.17855638       0.08101720 </v>
   <v>       0.00956435       0.01288976       0.03337259 </v>
   <v>      -0.11504065       0.17855716       0.08101150 </v>
   <v>       0.15497328      -0.14226819       0.06635303 </v>
   <v>       0.03296734      -0.03749913       0.01074064 </v>
   <v>      -0.15495773      -0.14227990       0.06636237 </v>
   <v>      -0.03297521      -0.03749285       0.01074512 </v>
   <v>       0.17710592       0.17499726      -0.06206023 </v>
   <v>       0.06798514       0.08214206      -0.08988399 </v>
   <v>      -0.17709531       0.17491971      -0.06201818 </v>
   <v>      -0.06798122       0.08218954      -0.08991629 </v>
   <v>      -0.00008542      -0.73339951       0.09171260 </v>
   <v>       0.00002360      -0.16853578      -0.09367584 </v>
   <v>       0.02449682       0.05813067      -0.03120283 </v>
   <v>      -0.02450051       0.05801565      -0.03116635 </v>
   <v>      -0.00001458       0.02529946      -0.00421521 </v>
   <v>       0.00000546       0.07323851      -0.01017375 </v>
   <v>       0.02694083       0.03602576      -0.04933245 </v>
   <v>      -0.02693756       0.03604805      -0.04934311 </v>
   <v>       0.75384602       0.24154147       0.01715596 </v>
   <v>      -0.39510931       0.14085284       0.04110023 </v>
   <v>      -0.75391670       0.24153286       0.01723342 </v>
   <v>       0.39521161       0.14083810       0.04112929 </v>
   <v>       0.12596642      -0.09359809       0.00199155 </v>
   <v>      -0.01216757      -0.04010863      -0.07241275 </v>
   <v>      -0.12596728      -0.09361391       0.00198158 </v>
   <v>       0.01214944      -0.04010832      -0.07240564 </v>
  </varray>
  <varray name="stress" >
   <v>      -6.29867771       0.00006726       0.00047293 </v>
   <v>       0.00006692      -4.71967208      -0.34253174 </v>
   <v>       0.00047314      -0.34253189      -0.15075449 </v>
  </varray>
  <energy>
   <i name="e_fr_energy">   -276.83939351 </i>
   <i name="e_wo_entrp">   -276.83483228 </i>
   <i name="e_0_energy">     -0.00912248 </i>
  </energy>
  <time name="totalsc">   85.37   85.59</time>
 </calculation>
 <calculation>
  <scstep>
   <time name="dav">    5.84    5.86</time>
   <time name="total">    6.58    6.60</time>
   <energy>
    <i name="alphaZ">    192.28718434 </i>
    <i name="ewald">  12691.59350987 </i>
    <i name="hartreedc"> -22600.18318404 </i>
    <i name="XCdc">  -1805.07302579 </i>
    <i name="pawpsdc">  20346.95491862 </i>
    <i name="pawaedc"> -18074.65356905 </i>
    <i name="eentropy">     -0.00534139 </i>
    <i name="bandstr">  -1206.23132974 </i>
    <i name="atom">  10178.37189613 </i>
    <i name="e_fr_energy">   -276.93894104 </i>
    <i name="e_wo_entrp">   -276.93359965 </i>
    <i name="e_0_energy">   -276.93627034 </i>
   </energy>
  </scstep>
  <scstep>
   <time name="dav">    6.84    6.84</time>
   <time name="total">    7.56    7.56</time>
   <energy>
    <i name="e_fr_energy">   -276.98625530 </i>
    <i name="e_wo_entrp">   -276.98102386 </i>
    <i name="e_0_energy">   -276.98363958 </i>
   </energy>
  </scstep>
  <scstep>
   <time name="dav">    7.89    7.90</time>
   <time name="total">    8.63    8.63</time>
   <energy>
    <i name="e_fr_energy">   -276.98900482 </i>
    <i name="e_wo_entrp">   -276.98388419 </i>
    <i name="e_0_energy">   -276.98644451 </i>
   </energy>
  </scstep>
  <scstep>
   <time name="dav">    8.22    8.23</time>
   <time name="total">    8.97    8.97</time>
   <energy>
    <i name="e_fr_energy">   -276.97312390 </i>
    <i name="e_wo_entrp">   -276.96774699 </i>
    <i name="e_0_energy">   -276.97043545 </i>
   </energy>
  </scstep>
  <scstep>
   <time name="dav">    7.69    7.69</time>
   <time name="total">    8.40    8.43</time>
   <energy>
    <i name="e_fr_energy">   -276.97493639 </i>
    <i name="e_wo_entrp">   -276.96969839 </i>
    <i name="e_0_energy">   -276.97231739 </i>
   </energy>
  </scstep>
  <scstep>
   <time name="dav">    7.62    7.62</time>
   <time name="total">    8.34    8.35</time>
   <energy>
    <i name="e_fr_energy">   -276.97102764 </i>
    <i name="e_wo_entrp">   -276.96569553 </i>
    <i name="e_0_energy">   -276.96836158 </i>
   </energy>
  </scstep>
  <scstep>
   <time name="dav">    6.82    6.82</time>
   <time name="total">    7.53    7.54</time>
   <energy>
    <i name="e_fr_energy">   -276.97115495 </i>
    <i name="e_wo_entrp">   -276.96583576 </i>
    <i name="e_0_energy">   -276.96849536 </i>
   </energy>
  </scstep>
  <scstep>
   <time name="dav">    7.03    7.03</time>
   <time name="total">    7.75    7.77</time>
   <energy>
    <i name="e_fr_energy">   -276.97112054 </i>
    <i name="e_wo_entrp">   -276.96579543 </i>
    <i name="e_0_energy">   -276.96845799 </i>
   </energy>
  </scstep>
  <scstep>
   <time name="dav">    7.10    7.10</time>
   <time name="total">    7.82    7.84</time>
   <energy>
    <i name="e_fr_energy">   -276.97111380 </i>
    <i name="e_wo_entrp">   -276.96578854 </i>
    <i name="e_0_energy">   -276.96845117 </i>
   </energy>
  </scstep>
  <scstep>
   <time name="dav">    6.21    6.22</time>
   <time name="total">    6.51    6.52</time>
   <energy>
    <i name="alphaZ">    192.28718434 </i>
    <i name="ewald">  12691.59350987 </i>
    <i name="hartreedc"> -22600.38803184 </i>
    <i name="XCdc">  -1805.04735813 </i>
    <i name="pawpsdc">  20402.83490415 </i>
    <i name="pawaedc"> -18130.78253535 </i>
    <i name="eentropy">     -0.00531782 </i>
    <i name="bandstr">  -1205.83537432 </i>
    <i name="atom">  10178.37189613 </i>
    <i name="e_fr_energy">   -276.97112297 </i>
    <i name="e_wo_entrp">   -276.96580515 </i>
    <i name="e_0_energy">   -276.96846406 </i>
   </energy>
  </scstep>
  <structure>
   <crystal>
    <varray name="basis" >
     <v>      13.80799961       0.00000000       0.00000000 </v>
     <v>       0.00000000      12.73600006       0.00000000 </v>
     <v>       0.00000000       0.00000000      16.00000000 </v>
    </varray>
    <i name="volume">   2813.73894219 </i>
    <varray name="rec_basis" >
     <v>       0.07242179       0.00000000       0.00000000 </v>
     <v>       0.00000000       0.07851759       0.00000000 </v>
     <v>       0.00000000       0.00000000       0.06250000 </v>
    </varray>
   </crystal>
   <varray name="positions" >
    <v>       0.62499969       0.05023912       0.62786621 </v>
    <v>       0.37219141       0.05029972       0.62773109 </v>
    <v>       0.87780912       0.05029991       0.62773127 </v>
    <v>       0.12499997       0.55090066       0.62891439 </v>
    <v>       0.62500002       0.55128296       0.62757834 </v>
    <v>       0.37506485       0.55083015       0.62902838 </v>
    <v>       0.87493514       0.55083018       0.62902831 </v>
    <v>       0.12499999       0.37613641       0.40748223 </v>
    <v>       0.62499999       0.37462000       0.40800873 </v>
    <v>       0.37512655       0.37436863       0.40801685 </v>
    <v>       0.87487341       0.37436855       0.40801691 </v>
    <v>       0.12499992       0.87555156       0.40844371 </v>
    <v>       0.37932759       0.87642720       0.40680920 </v>
    <v>       0.87067275       0.87642715       0.40680908 </v>
    <v>      -0.00023628       0.12841541       0.37117557 </v>
    <v>       0.50015485       0.12679846       0.37084664 </v>
    <v>       0.25023623       0.12841560       0.37117531 </v>
    <v>       0.74984520       0.12679889       0.37084634 </v>
    <v>       0.00029019       0.62878169       0.37091900 </v>
    <v>       0.50053961       0.63024771       0.37037860 </v>
    <v>       0.24970978       0.62878174       0.37091897 </v>
    <v>       0.74946039       0.63024768       0.37037865 </v>
    <v>       0.00145441       0.30355585       0.59244105 </v>
    <v>       0.50015149       0.30492450       0.59274867 </v>
    <v>       0.24854556       0.30355587       0.59244104 </v>
    <v>       0.74984850       0.30492447       0.59274859 </v>
    <v>       0.00179803       0.80682940       0.59229335 </v>
    <v>       0.50181384       0.80556056       0.59076197 </v>
    <v>       0.24820196       0.80682924       0.59229343 </v>
    <v>       0.74818613       0.80556018       0.59076214 </v>
    <v>       0.12499988       0.17170342       0.49651252 </v>
    <v>       0.62499996       0.17546568       0.49405336 </v>
    <v>       0.37526854       0.17836841       0.49400726 </v>
    <v>       0.87473160       0.17836865       0.49400724 </v>
    <v>       0.12500001       0.67959984       0.49399549 </v>
    <v>       0.62499995       0.68091046       0.49767744 </v>
    <v>       0.37582770       0.67925394       0.49458978 </v>
    <v>       0.87417222       0.67925385       0.49458979 </v>
    <v>       0.00614365       0.00329367       0.50483194 </v>
    <v>       0.49498346       0.00255976       0.50786408 </v>
    <v>       0.24385645       0.00329357       0.50483193 </v>
    <v>       0.75501622       0.00255983       0.50786393 </v>
    <v>       0.00154385       0.49864573       0.50602113 </v>
    <v>       0.50028539       0.49917031       0.50591040 </v>
    <v>       0.24845609       0.49864577       0.50602114 </v>
    <v>       0.74971472       0.49917030       0.50591035 </v>
   </varray>
  </structure>
  <varray name="forces" >
   <v>       0.00009224      -0.18627602       0.26548815 </v>
   <v>      -0.67618161       0.07092639       0.36166841 </v>
   <v>       0.67614949       0.07085613       0.36141926 </v>
   <v>      -0.00000001      -0.01383434       0.14514988 </v>
   <v>       0.00000149      -0.16345192       0.35205891 </v>
   <v>      -0.04810258      -0.07271184       0.04500414 </v>
   <v>       0.04810656      -0.07270721       0.04501754 </v>
   <v>      -0.00000051      -0.11371045       0.04049613 </v>
   <v>      -0.00000311      -0.15805449       0.10561487 </v>
   <v>       0.00206086      -0.07329390       0.11235749 </v>
   <v>      -0.00204632      -0.07326724       0.11233507 </v>
   <v>      -0.00005981      -0.17459476      -0.24690675 </v>
   <v>       0.27281899       0.07191613       0.06896036 </v>
   <v>      -0.27282411       0.07199848       0.06908444 </v>
   <v>       0.04686591       0.12667930      -0.24966647 </v>
   <v>      -0.04942470      -0.13376311      -0.10062154 </v>
   <v>      -0.04683993       0.12679004      -0.24974320 </v>
   <v>       0.04942145      -0.13382808      -0.10051410 </v>
   <v>      -0.05939454       0.01833365       0.05984573 </v>
   <v>       0.15672356       0.15692801       0.24781124 </v>
   <v>       0.05939672       0.01833659       0.05983454 </v>
   <v>      -0.15672028       0.15693224       0.24781409 </v>
   <v>       0.10501284      -0.11250905       0.14341161 </v>
   <v>       0.03286316      -0.08180891      -0.03320993 </v>
   <v>      -0.10497874      -0.11253550       0.14342614 </v>
   <v>      -0.03287621      -0.08179848      -0.03320085 </v>
   <v>       0.11578882       0.10394395      -0.09487573 </v>
   <v>      -0.14601038       0.09948719       0.09367571 </v>
   <v>      -0.11578472       0.10385043      -0.09481005 </v>
   <v>       0.14602973       0.09957893       0.09362302 </v>
   <v>      -0.00016182      -0.23908971      -0.20599317 </v>
   <v>       0.00004204       0.34428836      -0.20185471 </v>
   <v>       0.02275352       0.41616763      -0.03377832 </v>
   <v>      -0.02278894       0.41596278      -0.03371546 </v>
   <v>      -0.00002621       0.13454895       0.01077438 </v>
   <v>       0.00001469       0.07208958      -0.65509596 </v>
   <v>      -0.06282402       0.21832785      -0.19164817 </v>
   <v>       0.06283854       0.21837029      -0.19166040 </v>
   <v>       0.49597032      -0.14594982       0.22541841 </v>
   <v>      -0.01456826      -0.21955019      -0.29259247 </v>
   <v>      -0.49605325      -0.14600140       0.22551143 </v>
   <v>       0.01473583      -0.21956217      -0.29249500 </v>
   <v>       0.01636530      -0.11086975      -0.01414075 </v>
   <v>      -0.07062971      -0.08312458      -0.15256522 </v>
   <v>      -0.01635792      -0.11090219      -0.01415586 </v>
   <v>       0.07060562      -0.08311780      -0.15255686 </v>
  </varray>
  <varray name="stress" >
   <v>      -5.69916203       0.00005708       0.00073039 </v>
   <v>       0.00005715      -3.47852205      -0.58480406 </v>
   <v>       0.00073045      -0.58480402       1.74687714 </v>
  </varray>
  <energy>
   <i name="e_fr_energy">   -276.97112297 </i>
   <i name="e_wo_entrp">   -276.96846406 </i>
   <i name="e_0_energy">     -0.00531782 </i>
  </energy>
  <time name="totalsc">   91.40   91.52</time>
 </calculation>
 <calculation>
  <scstep>
   <time name="dav">    5.79    5.83</time>
   <time name="total">    6.50    6.55</time>
   <energy>
    <i name="alphaZ">    192.28718434 </i>
    <i name="ewald">  12656.46652918 </i>
    <i name="hartreedc"> -22566.87011344 </i>
    <i name="XCdc">  -1805.27601872 </i>
    <i name="pawpsdc">  20402.46548854 </i>
    <i name="pawaedc"> -18130.41303409 </i>
    <i name="eentropy">     -0.00276889 </i>
    <i name="bandstr">  -1204.13665411 </i>
    <i name="atom">  10178.37189613 </i>
    <i name="e_fr_energy">   -277.10749104 </i>
    <i name="e_wo_entrp">   -277.10472215 </i>
    <i name="e_0_energy">   -277.10610660 </i>
   </energy>
  </scstep>
  <scstep>
   <time name="dav">    7.19    7.20</time>
   <time name="total">    7.91    7.92</time>
   <energy>
    <i name="e_fr_energy">   -277.17436508 </i>
    <i name="e_wo_entrp">   -277.17016974 </i>
    <i name="e_0_energy">   -277.17226741 </i>
   </energy>
  </scstep>
  <scstep>
   <time name="dav">    7.82    7.82</time>
   <time name="total">    8.58    8.59</time>
   <energy>
    <i name="e_fr_energy">   -277.17212406 </i>
    <i name="e_wo_entrp">   -277.16943955 </i>
    <i name="e_0_energy">   -277.17078181 </i>
   </energy>
  </scstep>
  <scstep>
   <time name="dav">    8.17    8.17</time>
   <time name="total">    8.90    8.90</time>
   <energy>
    <i name="e_fr_energy">   -277.15589797 </i>
    <i name="e_wo_entrp">   -277.15231446 </i>
    <i name="e_0_energy">   -277.15410622 </i>
   </energy>
  </scstep>
  <scstep>
   <time name="dav">    7.61    7.71</time>
   <time name="total">    8.33    8.43</time>
   <energy>
    <i name="e_fr_energy">   -277.15708368 </i>
    <i name="e_wo_entrp">   -277.15366348 </i>
    <i name="e_0_energy">   -277.15537358 </i>
   </energy>
  </scstep>
  <scstep>
   <time name="dav">    7.93    7.93</time>
   <time name="total">    8.64    8.64</time>
   <energy>
    <i name="e_fr_energy">   -277.15385893 </i>
    <i name="e_wo_entrp">   -277.15037168 </i>
    <i name="e_0_energy">   -277.15211531 </i>
   </energy>
  </scstep>
  <scstep>
   <time name="dav">    6.81    6.82</time>
   <time name="total">    7.53    7.54</time>
   <energy>
    <i name="e_fr_energy">   -277.15395095 </i>
    <i name="e_wo_entrp">   -277.15049370 </i>
    <i name="e_0_energy">   -277.15222232 </i>
   </energy>
  </scstep>
  <scstep>
   <time name="dav">    7.01    7.03</time>
   <time name="total">    7.69    7.79</time>
   <energy>
    <i name="e_fr_energy">   -277.15390105 </i>
    <i name="e_wo_entrp">   -277.15042250 </i>
    <i name="e_0_energy">   -277.15216178 </i>
   </energy>
  </scstep>
  <scstep>
   <time name="dav">    6.92    6.91</time>
   <time name="total">    7.22    7.23</time>
   <energy>
    <i name="alphaZ">    192.28718434 </i>
    <i name="ewald">  12656.46652918 </i>
    <i name="hartreedc"> -22566.55771743 </i>
    <i name="XCdc">  -1805.24710107 </i>
    <i name="pawpsdc">  20350.67112524 </i>
    <i name="pawaedc"> -18078.54580722 </i>
    <i name="eentropy">     -0.00347689 </i>
    <i name="bandstr">  -1204.59652693 </i>
    <i name="atom">  10178.37189613 </i>
    <i name="e_fr_energy">   -277.15389464 </i>
    <i name="e_wo_entrp">   -277.15041776 </i>
    <i name="e_0_energy">   -277.15215620 </i>
   </energy>
  </scstep>
  <structure>
   <crystal>
    <varray name="basis" >
     <v>      13.80799961       0.00000000       0.00000000 </v>
     <v>       0.00000000      12.73600006       0.00000000 </v>
     <v>       0.00000000       0.00000000      16.00000000 </v>
    </varray>
    <i name="volume">   2813.73894219 </i>
    <varray name="rec_basis" >
     <v>       0.07242179       0.00000000       0.00000000 </v>
     <v>       0.00000000       0.07851759       0.00000000 </v>
     <v>       0.00000000       0.00000000       0.06250000 </v>
    </varray>
   </crystal>
   <varray name="positions" >
    <v>       0.62499998       0.04919008       0.62842783 </v>
    <v>       0.36839286       0.05045823       0.62860207 </v>
    <v>       0.88160770       0.05045816       0.62860140 </v>
    <v>       0.12499997       0.55086427       0.62937643 </v>
    <v>       0.62500004       0.55068065       0.62836405 </v>
    <v>       0.37488116       0.55049881       0.62915956 </v>
    <v>       0.87511883       0.55049887       0.62915952 </v>
    <v>       0.12499998       0.37612080       0.40759768 </v>
    <v>       0.62499998       0.37390373       0.40853572 </v>
    <v>       0.37517672       0.37396158       0.40857128 </v>
    <v>       0.87482330       0.37396160       0.40857127 </v>
    <v>       0.12499964       0.87506354       0.40781713 </v>
    <v>       0.38190478       0.87736388       0.40680920 </v>
    <v>       0.86809566       0.87736419       0.40680950 </v>
    <v>      -0.00011392       0.12890562       0.37035919 </v>
    <v>       0.49999496       0.12555723       0.37047057 </v>
    <v>       0.25011397       0.12890639       0.37035856 </v>
    <v>       0.75000509       0.12555749       0.37047056 </v>
    <v>       0.00013210       0.62889135       0.37115644 </v>
    <v>       0.50138361       0.63147677       0.37113027 </v>
    <v>       0.24986787       0.62889142       0.37115636 </v>
    <v>       0.74861640       0.63147676       0.37113034 </v>
    <v>       0.00237729       0.30258357       0.59297632 </v>
    <v>       0.50034101       0.30454155       0.59273531 </v>
    <v>       0.24762280       0.30258348       0.59297636 </v>
    <v>       0.74965893       0.30454156       0.59273523 </v>
    <v>       0.00287919       0.80792714       0.59190442 </v>
    <v>       0.50178506       0.80622279       0.59056536 </v>
    <v>       0.24712081       0.80792649       0.59190477 </v>
    <v>       0.74821499       0.80622272       0.59056539 </v>
    <v>       0.12499916       0.16778874       0.49655485 </v>
    <v>       0.62500013       0.17547526       0.49330675 </v>
    <v>       0.37545326       0.17965914       0.49386340 </v>
    <v>       0.87454677       0.17965850       0.49386360 </v>
    <v>       0.12499990       0.67999275       0.49401155 </v>
    <v>       0.62499999       0.68144351       0.49644986 </v>
    <v>       0.37583077       0.67992062       0.49405611 </v>
    <v>       0.87416918       0.67992070       0.49405607 </v>
    <v>       0.01026518       0.00395194       0.50530047 </v>
    <v>       0.49328099       0.00263817       0.50741998 </v>
    <v>       0.23973460       0.00395157       0.50530080 </v>
    <v>       0.75671931       0.00263819       0.50742015 </v>
    <v>       0.00211840       0.49794611       0.50599794 </v>
    <v>       0.50007788       0.49877035       0.50534217 </v>
    <v>       0.24788155       0.49794601       0.50599790 </v>
    <v>       0.74992216       0.49877037       0.50534214 </v>
   </varray>
  </structure>
  <varray name="forces" >
   <v>       0.00001873      -0.10734680      -0.07764830 </v>
   <v>      -0.41721927       0.13048179       0.03573758 </v>
   <v>       0.41717211       0.13046848       0.03594925 </v>
   <v>       0.00000438      -0.01121278       0.04024906 </v>
   <v>      -0.00000305      -0.04691246      -0.05295898 </v>
   <v>      -0.04298563      -0.03857349      -0.11057505 </v>
   <v>       0.04298344      -0.03857021      -0.11056520 </v>
   <v>      -0.00001067      -0.14209831       0.00037854 </v>
   <v>       0.00000013      -0.10875599       0.01880359 </v>
   <v>      -0.01687178      -0.01391843       0.03446018 </v>
   <v>       0.01687897      -0.01394601       0.03447087 </v>
   <v>       0.00005862      -0.21491130      -0.33723398 </v>
   <v>       0.05109339      -0.01050205       0.02909231 </v>
   <v>      -0.05114075      -0.01054035       0.02904835 </v>
   <v>       0.00528313       0.03263405      -0.09591963 </v>
   <v>      -0.08260686      -0.04521410      -0.10624048 </v>
   <v>      -0.00535802       0.03254132      -0.09564122 </v>
   <v>       0.08261522      -0.04524178      -0.10622793 </v>
   <v>      -0.03037405      -0.00115149       0.02121022 </v>
   <v>       0.03167218       0.07858227       0.01301890 </v>
   <v>       0.03036791      -0.00115246       0.02123837 </v>
   <v>      -0.03167463       0.07859141       0.01299689 </v>
   <v>       0.08631457      -0.06346590       0.14412794 </v>
   <v>      -0.00010726      -0.06911705      -0.06795318 </v>
   <v>      -0.08633534      -0.06346247       0.14410446 </v>
   <v>       0.00012162      -0.06912522      -0.06793632 </v>
   <v>       0.08090738       0.00151049      -0.04061140 </v>
   <v>      -0.18093703       0.06743175       0.06396943 </v>
   <v>      -0.08090680       0.00157107      -0.04064321 </v>
   <v>       0.18093628       0.06744161       0.06397299 </v>
   <v>       0.00017936       0.22179959      -0.23527266 </v>
   <v>      -0.00001916       0.17360860       0.01642021 </v>
   <v>       0.01067653       0.08976636       0.11804641 </v>
   <v>      -0.01071081       0.08995922       0.11794734 </v>
   <v>       0.00000606      -0.03989796       0.01634902 </v>
   <v>      -0.00000378      -0.07842464      -0.04510639 </v>
   <v>      -0.06601074       0.12669735       0.05678511 </v>
   <v>       0.06602554       0.12670363       0.05680166 </v>
   <v>       0.12926232      -0.10309976      -0.01505740 </v>
   <v>       0.06839149      -0.05903350       0.11323151 </v>
   <v>      -0.12922545      -0.10293667      -0.01518411 </v>
   <v>      -0.06846663      -0.05905209       0.11317388 </v>
   <v>      -0.02321520       0.00043279       0.06512444 </v>
   <v>       0.00010448       0.05351040       0.06946503 </v>
   <v>       0.02321315       0.00043557       0.06513149 </v>
   <v>      -0.00010411       0.05349550       0.06947042 </v>
  </varray>
  <varray name="stress" >
   <v>      -6.49920913       0.00003876      -0.00000419 </v>
   <v>       0.00003863      -3.49305246       0.14994773 </v>
   <v>      -0.00000429       0.14994740       0.35129099 </v>
  </varray>
  <energy>
   <i name="e_fr_energy">   -277.15389464 </i>
   <i name="e_wo_entrp">   -277.15215620 </i>
   <i name="e_0_energy">     -0.00347689 </i>
  </energy>
  <time name="totalsc">   84.70   85.00</time>
 </calculation>
 <calculation>
  <scstep>
   <time name="dav">    5.77    5.76</time>
   <time name="total">    6.49    6.49</time>
   <energy>
    <i name="alphaZ">    192.28718434 </i>
    <i name="ewald">  12645.44655144 </i>
    <i name="hartreedc"> -22555.96116173 </i>
    <i name="XCdc">  -1805.31739004 </i>
    <i name="pawpsdc">  20349.42606843 </i>
    <i name="pawaedc"> -18077.30059162 </i>
    <i name="eentropy">     -0.00276348 </i>
    <i name="bandstr">  -1204.11107198 </i>
    <i name="atom">  10178.37189613 </i>
    <i name="e_fr_energy">   -277.16127851 </i>
    <i name="e_wo_entrp">   -277.15851503 </i>
    <i name="e_0_energy">   -277.15989677 </i>
   </energy>
  </scstep>
  <scstep>
   <time name="dav">    7.06    7.16</time>
   <time name="total">    7.78    7.88</time>
   <energy>
    <i name="e_fr_energy">   -277.16884001 </i>
    <i name="e_wo_entrp">   -277.16557981 </i>
    <i name="e_0_energy">   -277.16720991 </i>
   </energy>
  </scstep>
  <scstep>
   <time name="dav">    7.91    7.91</time>
   <time name="total">    8.63    8.63</time>
   <energy>
    <i name="e_fr_energy">   -277.16828896 </i>
    <i name="e_wo_entrp">   -277.16554779 </i>
    <i name="e_0_energy">   -277.16691838 </i>
   </energy>
  </scstep>
  <scstep>
   <time name="dav">    7.95    7.95</time>
   <time name="total">    8.69    8.70</time>
   <energy>
    <i name="e_fr_energy">   -277.16663447 </i>
    <i name="e_wo_entrp">   -277.16358284 </i>
    <i name="e_0_energy">   -277.16510865 </i>
   </energy>
  </scstep>
  <scstep>
   <time name="dav">    7.43    7.44</time>
   <time name="total">    8.17    8.19</time>
   <energy>
    <i name="e_fr_energy">   -277.16676994 </i>
    <i name="e_wo_entrp">   -277.16380604 </i>
    <i name="e_0_energy">   -277.16528799 </i>
   </energy>
  </scstep>
  <scstep>
   <time name="dav">    8.09    8.11</time>
   <time name="total">    8.81    8.83</time>
   <energy>
    <i name="e_fr_energy">   -277.16640260 </i>
    <i name="e_wo_entrp">   -277.16340456 </i>
    <i name="e_0_energy">   -277.16490358 </i>
   </energy>
  </scstep>
  <scstep>
   <time name="dav">    7.05    7.05</time>
   <time name="total">    7.76    7.76</time>
   <energy>
    <i name="e_fr_energy">   -277.16642185 </i>
    <i name="e_wo_entrp">   -277.16342630 </i>
    <i name="e_0_energy">   -277.16492408 </i>
   </energy>
  </scstep>
  <scstep>
   <time name="dav">    5.97    5.98</time>
   <time name="total">    6.27    6.28</time>
   <energy>
    <i name="alphaZ">    192.28718434 </i>
    <i name="ewald">  12645.44655144 </i>
    <i name="hartreedc"> -22555.95815586 </i>
    <i name="XCdc">  -1805.30910441 </i>
    <i name="pawpsdc">  20335.45714370 </i>
    <i name="pawaedc"> -18063.31501684 </i>
    <i name="eentropy">     -0.00300335 </i>
    <i name="bandstr">  -1204.14391027 </i>
    <i name="atom">  10178.37189613 </i>
    <i name="e_fr_energy">   -277.16641511 </i>
    <i name="e_wo_entrp">   -277.16341176 </i>
    <i name="e_0_energy">   -277.16491343 </i>
   </energy>
  </scstep>
  <structure>
   <crystal>
    <varray name="basis" >
     <v>      13.80799961       0.00000000       0.00000000 </v>
     <v>       0.00000000      12.73600006       0.00000000 </v>
     <v>       0.00000000       0.00000000      16.00000000 </v>
    </varray>
    <i name="volume">   2813.73894219 </i>
    <varray name="rec_basis" >
     <v>       0.07242179       0.00000000       0.00000000 </v>
     <v>       0.00000000       0.07851759       0.00000000 </v>
     <v>       0.00000000       0.00000000       0.06250000 </v>
    </varray>
   </crystal>
   <varray name="positions" >
    <v>       0.62500007       0.04884145       0.62861446 </v>
    <v>       0.36713051       0.05051091       0.62889152 </v>
    <v>       0.88287007       0.05051075       0.62889056 </v>
    <v>       0.12499996       0.55085217       0.62952997 </v>
    <v>       0.62500004       0.55048049       0.62862516 </v>
    <v>       0.37482012       0.55038870       0.62920316 </v>
    <v>       0.87517988       0.55038876       0.62920313 </v>
    <v>       0.12499998       0.37611561       0.40763605 </v>
    <v>       0.62499997       0.37366570       0.40871085 </v>
    <v>       0.37519339       0.37382631       0.40875553 </v>
    <v>       0.87480664       0.37382636       0.40875551 </v>
    <v>       0.12499954       0.87490136       0.40760889 </v>
    <v>       0.38276124       0.87767516       0.40680921 </v>
    <v>       0.86723923       0.87767559       0.40680964 </v>
    <v>      -0.00007326       0.12906853       0.37008788 </v>
    <v>       0.49994183       0.12514474       0.37034559 </v>
    <v>       0.25007334       0.12906949       0.37008713 </v>
    <v>       0.75005823       0.12514495       0.37034568 </v>
    <v>       0.00007956       0.62892779       0.37123535 </v>
    <v>       0.50166409       0.63188522       0.37138007 </v>
    <v>       0.24992040       0.62892787       0.37123525 </v>
    <v>       0.74833592       0.63188521       0.37138015 </v>
    <v>       0.00268399       0.30226046       0.59315421 </v>
    <v>       0.50040399       0.30441428       0.59273086 </v>
    <v>       0.24731615       0.30226033       0.59315427 </v>
    <v>       0.74959593       0.30441430       0.59273079 </v>
    <v>       0.00323848       0.80829194       0.59177517 </v>
    <v>       0.50177549       0.80644287       0.59050002 </v>
    <v>       0.24676153       0.80829114       0.59177561 </v>
    <v>       0.74822458       0.80644290       0.59050001 </v>
    <v>       0.12499891       0.16648780       0.49656892 </v>
    <v>       0.62500019       0.17547845       0.49305863 </v>
    <v>       0.37551465       0.18008808       0.49381559 </v>
    <v>       0.87448535       0.18008715       0.49381587 </v>
    <v>       0.12499986       0.68012333       0.49401688 </v>
    <v>       0.62500001       0.68162066       0.49604191 </v>
    <v>       0.37583179       0.68014218       0.49387875 </v>
    <v>       0.87416818       0.68014231       0.49387870 </v>
    <v>       0.01163487       0.00417070       0.50545617 </v>
    <v>       0.49271521       0.00266422       0.50727240 </v>
    <v>       0.23836481       0.00417024       0.50545661 </v>
    <v>       0.75728529       0.00266424       0.50727266 </v>
    <v>       0.00230934       0.49771361       0.50599023 </v>
    <v>       0.50000892       0.49863743       0.50515333 </v>
    <v>       0.24769062       0.49771346       0.50599017 </v>
    <v>       0.74999111       0.49863746       0.50515330 </v>
   </varray>
  </structure>
  <varray name="forces" >
   <v>       0.00000191      -0.08088388      -0.18338922 </v>
   <v>      -0.33507042       0.14927312      -0.06242209 </v>
   <v>       0.33506350       0.14926488      -0.06213694 </v>
   <v>       0.00000745      -0.01020777       0.00613223 </v>
   <v>      -0.00000198      -0.00986856      -0.17802286 </v>
   <v>      -0.04190034      -0.02689812      -0.15949777 </v>
   <v>       0.04189571      -0.02688962      -0.15949444 </v>
   <v>      -0.00001270      -0.14765877      -0.01608487 </v>
   <v>       0.00000198      -0.09139641      -0.01096399 </v>
   <v>      -0.02344447       0.00818551       0.00571864 </v>
   <v>       0.02344979       0.00814131       0.00573991 </v>
   <v>       0.00005986      -0.22851284      -0.36717113 </v>
   <v>      -0.02179167      -0.04902899       0.00511910 </v>
   <v>       0.02176116      -0.04908731       0.00505608 </v>
   <v>      -0.00729290       0.00428824      -0.05009046 </v>
   <v>      -0.09295358      -0.01504988      -0.10839792 </v>
   <v>       0.00719247       0.00419348      -0.04977951 </v>
   <v>       0.09296745      -0.01506964      -0.10841452 </v>
   <v>      -0.02078217      -0.00856050       0.00759807 </v>
   <v>      -0.01305441       0.05221658      -0.06977142 </v>
   <v>       0.02077064      -0.00856256       0.00763060 </v>
   <v>       0.01305603       0.05222679      -0.06979420 </v>
   <v>       0.07923510      -0.04777661       0.14357611 </v>
   <v>      -0.01126535      -0.06599811      -0.07807255 </v>
   <v>      -0.07926507      -0.04776729       0.14354811 </v>
   <v>       0.01128503      -0.06601053      -0.07805487 </v>
   <v>       0.06943623      -0.03356993      -0.02024826 </v>
   <v>      -0.19191154       0.05491181       0.05376435 </v>
   <v>      -0.06943274      -0.03351189      -0.02027833 </v>
   <v>       0.19191031       0.05489752       0.05378029 </v>
   <v>       0.00020111       0.40734366      -0.23998016 </v>
   <v>      -0.00003493       0.11833505       0.08555055 </v>
   <v>       0.00460156      -0.01675256       0.16714111 </v>
   <v>      -0.00461483      -0.01647968       0.16700956 </v>
   <v>       0.00000759      -0.09791876       0.01816383 </v>
   <v>      -0.00000088      -0.11741990       0.16061232 </v>
   <v>      -0.06353833       0.09922064       0.13885465 </v>
   <v>       0.06355122       0.09921885       0.13888001 </v>
   <v>      -0.01229209      -0.10706966      -0.08854323 </v>
   <v>       0.10599172      -0.00368303       0.24591743 </v>
   <v>       0.01232562      -0.10686959      -0.08868208 </v>
   <v>      -0.10611139      -0.00371150       0.24582085 </v>
   <v>      -0.03752611       0.03664155       0.09123044 </v>
   <v>       0.02295586       0.09861088       0.14060115 </v>
   <v>       0.03751603       0.03664447       0.09124279 </v>
   <v>      -0.02294743       0.09859956       0.14060265 </v>
  </varray>
  <varray name="stress" >
   <v>      -6.65382433       0.00002898       0.00008124 </v>
   <v>       0.00002912      -3.38660448       0.37961504 </v>
   <v>       0.00008112       0.37961545      -0.05928526 </v>
  </varray>
  <energy>
   <i name="e_fr_energy">   -277.16641511 </i>
   <i name="e_wo_entrp">   -277.16491343 </i>
   <i name="e_0_energy">     -0.00300335 </i>
  </energy>
  <time name="totalsc">   75.94   76.14</time>
 </calculation>
 <calculation>
  <scstep>
   <time name="dav">    5.83    5.84</time>
   <time name="total">    6.55    6.55</time>
   <energy>
    <i name="alphaZ">    192.28718434 </i>
    <i name="ewald">  12634.04752812 </i>
    <i name="hartreedc"> -22545.04873934 </i>
    <i name="XCdc">  -1805.37069594 </i>
    <i name="pawpsdc">  20335.37606436 </i>
    <i name="pawaedc"> -18063.23393475 </i>
    <i name="eentropy">     -0.00257433 </i>
    <i name="bandstr">  -1203.64097627 </i>
    <i name="atom">  10178.37189613 </i>
    <i name="e_fr_energy">   -277.21424767 </i>
    <i name="e_wo_entrp">   -277.21167334 </i>
    <i name="e_0_energy">   -277.21296051 </i>
   </energy>
  </scstep>
  <scstep>
   <time name="dav">    6.92    6.92</time>
   <time name="total">    7.67    7.68</time>
   <energy>
    <i name="e_fr_energy">   -277.23393992 </i>
    <i name="e_wo_entrp">   -277.23101715 </i>
    <i name="e_0_energy">   -277.23247854 </i>
   </energy>
  </scstep>
  <scstep>
   <time name="dav">    7.88    7.88</time>
   <time name="total">    8.59    8.60</time>
   <energy>
    <i name="e_fr_energy">   -277.23484638 </i>
    <i name="e_wo_entrp">   -277.23246604 </i>
    <i name="e_0_energy">   -277.23365621 </i>
   </energy>
  </scstep>
  <scstep>
   <time name="dav">    8.01    8.04</time>
   <time name="total">    8.74    8.77</time>
   <energy>
    <i name="e_fr_energy">   -277.23255481 </i>
    <i name="e_wo_entrp">   -277.22979385 </i>
    <i name="e_0_energy">   -277.23117433 </i>
   </energy>
  </scstep>
  <scstep>
   <time name="dav">    7.52    7.52</time>
   <time name="total">    8.24    8.24</time>
   <energy>
    <i name="e_fr_energy">   -277.23237041 </i>
    <i name="e_wo_entrp">   -277.22966361 </i>
    <i name="e_0_energy">   -277.23101701 </i>
   </energy>
  </scstep>
  <scstep>
   <time name="dav">    7.96    8.00</time>
   <time name="total">    8.69    8.74</time>
   <energy>
    <i name="e_fr_energy">   -277.23220163 </i>
    <i name="e_wo_entrp">   -277.22949958 </i>
    <i name="e_0_energy">   -277.23085060 </i>
   </energy>
  </scstep>
[...]
       <r>    0.8225    0.0000 </r>
       <r>    0.8982    0.0000 </r>
       <r>    1.0082    0.0000 </r>
       <r>    1.0325    0.0000 </r>
       <r>    1.1144    0.0000 </r>
       <r>    1.1337    0.0000 </r>
       <r>    1.1993    0.0000 </r>
       <r>    1.2732    0.0000 </r>
       <r>    1.3099    0.0000 </r>
       <r>    1.3360    0.0000 </r>
       <r>    1.3978    0.0000 </r>
       <r>    1.5479    0.0000 </r>
       <r>    1.5815    0.0000 </r>
       <r>    1.5998    0.0000 </r>
       <r>    1.6504    0.0000 </r>
       <r>    1.6652    0.0000 </r>
       <r>    1.6974    0.0000 </r>
       <r>    1.7160    0.0000 </r>
       <r>    1.7426    0.0000 </r>
       <r>    1.8328    0.0000 </r>
       <r>    1.8785    0.0000 </r>
       <r>    1.8864    0.0000 </r>
       <r>    1.9180    0.0000 </r>
       <r>    1.9475    0.0000 </r>
       <r>    2.0212    0.0000 </r>
       <r>    2.0716    0.0000 </r>
       <r>    2.1021    0.0000 </r>
       <r>    2.1153    0.0000 </r>
       <r>    2.1872    0.0000 </r>
       <r>    2.2207    0.0000 </r>
       <r>    2.2464    0.0000 </r>
       <r>    2.2714    0.0000 </r>
      </set>
     </set>
    </set>
   </array>
  </eigenvalues>
  <separator name="orbital magnetization" >
   <v name="MAGDIPOLOUT">      0.00000000      0.00000000      0.00000000</v>
  </separator>
  <dos>
   <i name="efermi">      0.12265449 </i>
   <total>
    <array>
     <dimension dim="1">gridpoints</dimension>
     <dimension dim="2">spin</dimension>
     <field>energy</field>
     <field>total</field>
     <field>integrated</field>
     <set>
      <set comment="spin 1">
       <r>   -13.2807     0.0000     0.0000 </r>
       <r>   -13.2262     0.0000     0.0000 </r>
       <r>   -13.1718     0.0000     0.0000 </r>
       <r>   -13.1174     0.0000     0.0000 </r>
       <r>   -13.0629     0.0000     0.0000 </r>
       <r>   -13.0085     0.0000     0.0000 </r>
       <r>   -12.9540     0.0000     0.0000 </r>
       <r>   -12.8996     0.0000     0.0000 </r>
       <r>   -12.8451     0.0000     0.0000 </r>
       <r>   -12.7907     0.0000     0.0000 </r>
       <r>   -12.7362     0.0000     0.0000 </r>
       <r>   -12.6818     0.0002     0.0000 </r>
       <r>   -12.6273     0.0538     0.0029 </r>
       <r>   -12.5729     1.4792     0.0835 </r>
       <r>   -12.5184     6.4071     0.4323 </r>
       <r>   -12.4640    10.9004     1.0258 </r>
       <r>   -12.4096    10.5709     1.6013 </r>
       <r>   -12.3551     6.2189     1.9399 </r>
       <r>   -12.3007     4.2943     2.1737 </r>
       <r>   -12.2462    10.2267     2.7305 </r>
       <r>   -12.1918    12.2089     3.3953 </r>
       <r>   -12.1373     7.6108     3.8097 </r>
       <r>   -12.0829     6.3243     4.1540 </r>
       <r>   -12.0284     9.7189     4.6831 </r>
       <r>   -11.9740    17.7677     5.6505 </r>
       <r>   -11.9195    13.5687     6.3893 </r>
       <r>   -11.8651     2.3612     6.5178 </r>
       <r>   -11.8106     6.4362     6.8683 </r>
       <r>   -11.7562    19.0479     7.9053 </r>
       <r>   -11.7018    20.4370     9.0181 </r>
       <r>   -11.6473    23.9638    10.3228 </r>
       <r>   -11.5929    20.8937    11.4604 </r>
       <r>   -11.5384    25.3010    12.8379 </r>
       <r>   -11.4840    25.5389    14.2284 </r>
       <r>   -11.4295    16.7560    15.1407 </r>
       <r>   -11.3751    25.1998    16.5127 </r>
       <r>   -11.3206    35.1967    18.4290 </r>
       <r>   -11.2662    29.8587    20.0547 </r>
       <r>   -11.2117    27.6972    21.5627 </r>
       <r>   -11.1573    26.9065    23.0277 </r>
       <r>   -11.1028    25.5055    24.4164 </r>
       <r>   -11.0484    24.4409    25.7471 </r>
       <r>   -10.9940    29.5276    27.3547 </r>
       <r>   -10.9395    42.6730    29.6781 </r>
       <r>   -10.8851    37.2988    31.7089 </r>
       <r>   -10.8306    31.7080    33.4352 </r>
       <r>   -10.7762    41.5760    35.6989 </r>
       <r>   -10.7217    56.7585    38.7892 </r>
       <r>   -10.6673    46.2900    41.3095 </r>
       <r>   -10.6128    39.4709    43.4585 </r>
       <r>   -10.5584    45.8273    45.9536 </r>
       <r>   -10.5039    34.9223    47.8550 </r>
       <r>   -10.4495    26.2928    49.2865 </r>
       <r>   -10.3951    26.5747    50.7334 </r>
       <r>   -10.3406    28.8240    52.3028 </r>
       <r>   -10.2862    22.8913    53.5491 </r>
       <r>   -10.2317    38.4536    55.6427 </r>
       <r>   -10.1773    42.9064    57.9788 </r>
       <r>   -10.1228    27.8891    59.4973 </r>
       <r>   -10.0684     8.5988    59.9654 </r>
       <r>   -10.0139     0.6273    59.9996 </r>
       <r>    -9.9595     0.0073    60.0000 </r>
       <r>    -9.9050     0.0000    60.0000 </r>
       <r>    -9.8506     0.0000    60.0000 </r>
       <r>    -9.7961     0.0000    60.0000 </r>
       <r>    -9.7417     0.0000    60.0000 </r>
       <r>    -9.6873     0.0000    60.0000 </r>
       <r>    -9.6328     0.0000    60.0000 </r>
       <r>    -9.5784     0.0000    60.0000 </r>
       <r>    -9.5239     0.0000    60.0000 </r>
       <r>    -9.4695     0.0000    60.0000 </r>
       <r>    -9.4150     0.0000    60.0000 </r>
       <r>    -9.3606     0.0000    60.0000 </r>
       <r>    -9.3061     0.0000    60.0000 </r>
       <r>    -9.2517     0.0000    60.0000 </r>
       <r>    -9.1972     0.0000    60.0000 </r>
       <r>    -9.1428     0.0000    60.0000 </r>
       <r>    -9.0883     0.0000    60.0000 </r>
       <r>    -9.0339     0.0000    60.0000 </r>
       <r>    -8.9795     0.0000    60.0000 </r>
       <r>    -8.9250     0.0000    60.0000 </r>
       <r>    -8.8706     0.0000    60.0000 </r>
       <r>    -8.8161     0.0000    60.0000 </r>
       <r>    -8.7617     0.0000    60.0000 </r>
       <r>    -8.7072     0.0000    60.0000 </r>
       <r>    -8.6528     0.0000    60.0000 </r>
       <r>    -8.5983     0.0000    60.0000 </r>
       <r>    -8.5439     0.0000    60.0000 </r>
       <r>    -8.4894     0.0000    60.0000 </r>
       <r>    -8.4350     0.0000    60.0000 </r>
       <r>    -8.3805     0.0000    60.0000 </r>
       <r>    -8.3261     0.0000    60.0000 </r>
       <r>    -8.2717     0.0000    60.0000 </r>
       <r>    -8.2172     0.0000    60.0000 </r>
       <r>    -8.1628     0.0000    60.0000 </r>
       <r>    -8.1083     0.0000    60.0000 </r>
       <r>    -8.0539     0.0000    60.0000 </r>
       <r>    -7.9994     0.0000    60.0000 </r>
       <r>    -7.9450     0.0000    60.0000 </r>
       <r>    -7.8905     0.0000    60.0000 </r>
       <r>    -7.8361     0.0000    60.0000 </r>
       <r>    -7.7816     0.0000    60.0000 </r>
       <r>    -7.7272     0.0000    60.0000 </r>
       <r>    -7.6728     0.0000    60.0000 </r>
       <r>    -7.6183     0.0000    60.0000 </r>
       <r>    -7.5639     0.0000    60.0000 </r>
       <r>    -7.5094     0.0000    60.0000 </r>
       <r>    -7.4550     0.0000    60.0000 </r>
       <r>    -7.4005     0.0000    60.0000 </r>
       <r>    -7.3461     0.0000    60.0000 </r>
       <r>    -7.2916     0.0000    60.0000 </r>
       <r>    -7.2372     0.0000    60.0000 </r>
       <r>    -7.1827     0.0000    60.0000 </r>
       <r>    -7.1283     0.0000    60.0000 </r>
       <r>    -7.0738     0.0000    60.0000 </r>
       <r>    -7.0194     0.0000    60.0000 </r>
       <r>    -6.9650     0.0000    60.0000 </r>
       <r>    -6.9105     0.0000    60.0000 </r>
       <r>    -6.8561     0.0000    60.0000 </r>
       <r>    -6.8016     0.0000    60.0000 </r>
       <r>    -6.7472     0.0000    60.0000 </r>
       <r>    -6.6927     0.0000    60.0000 </r>
       <r>    -6.6383     0.0000    60.0000 </r>
       <r>    -6.5838     0.0000    60.0000 </r>
       <r>    -6.5294     0.0000    60.0000 </r>
       <r>    -6.4749     0.0000    60.0000 </r>
       <r>    -6.4205     0.0000    60.0000 </r>
       <r>    -6.3660     0.0000    60.0000 </r>
       <r>    -6.3116     0.0000    60.0000 </r>
       <r>    -6.2572     0.0000    60.0000 </r>
       <r>    -6.2027     0.0000    60.0000 </r>
       <r>    -6.1483     0.0000    60.0000 </r>
       <r>    -6.0938     0.0000    60.0000 </r>
       <r>    -6.0394     0.0000    60.0000 </r>
       <r>    -5.9849     0.0000    60.0000 </r>
       <r>    -5.9305     0.0000    60.0000 </r>
       <r>    -5.8760     0.0000    60.0000 </r>
       <r>    -5.8216     0.0000    60.0000 </r>
       <r>    -5.7671     0.0000    60.0000 </r>
       <r>    -5.7127     0.0000    60.0000 </r>
       <r>    -5.6582     0.0000    60.0000 </r>
       <r>    -5.6038     0.0024    60.0001 </r>
       <r>    -5.5494     0.2477    60.0136 </r>
       <r>    -5.4949     2.9727    60.1755 </r>
       <r>    -5.4405     4.9749    60.4463 </r>
       <r>    -5.3860     3.6285    60.6439 </r>
       <r>    -5.3316     8.8950    61.1282 </r>
       <r>    -5.2771    18.2756    62.1232 </r>
       <r>    -5.2227    21.7772    63.3089 </r>
       <r>    -5.1682    16.9199    64.2301 </r>
       <r>    -5.1138     9.8105    64.7643 </r>
       <r>    -5.0593    16.4704    65.6610 </r>
       <r>    -5.0049    16.0161    66.5330 </r>
       <r>    -4.9505    16.0151    67.4050 </r>
       <r>    -4.8960    22.1467    68.6108 </r>
       <r>    -4.8416    20.5284    69.7285 </r>
       <r>    -4.7871    16.7451    70.6402 </r>
       <r>    -4.7327    24.7357    71.9869 </r>
       <r>    -4.6782    29.1928    73.5764 </r>
       <r>    -4.6238    35.4622    75.5071 </r>
       <r>    -4.5693    40.9547    77.7370 </r>
       <r>    -4.5149    45.0357    80.1890 </r>
       <r>    -4.4604    48.0311    82.8041 </r>
       <r>    -4.4060    49.8277    85.5170 </r>
       <r>    -4.3515    50.3167    88.2565 </r>
       <r>    -4.2971    41.4992    90.5160 </r>
       <r>    -4.2427    44.9904    92.9655 </r>
       <r>    -4.1882    54.1825    95.9156 </r>
       <r>    -4.1338    38.6558    98.0202 </r>
       <r>    -4.0793    32.1128    99.7686 </r>
       <r>    -4.0249    33.9169   101.6153 </r>
       <r>    -3.9704    34.1565   103.4749 </r>
       <r>    -3.9160    29.2655   105.0683 </r>
       <r>    -3.8615    33.7531   106.9061 </r>
       <r>    -3.8071    44.6442   109.3368 </r>
       <r>    -3.7526    35.3533   111.2616 </r>
       <r>    -3.6982    28.3040   112.8026 </r>
       <r>    -3.6437    35.2192   114.7202 </r>
       <r>    -3.5893    41.7345   116.9925 </r>
       <r>    -3.5349    44.2950   119.4042 </r>
       <r>    -3.4804    42.3690   121.7110 </r>
       <r>    -3.4260    37.3776   123.7460 </r>
       <r>    -3.3715    39.6713   125.9060 </r>
       <r>    -3.3171    40.8179   128.1283 </r>
       <r>    -3.2626    35.5217   130.0624 </r>
       <r>    -3.2082    37.1740   132.0863 </r>
       <r>    -3.1537    45.5891   134.5685 </r>
       <r>    -3.0993    45.6975   137.0565 </r>
       <r>    -3.0448    40.3377   139.2528 </r>
       <r>    -2.9904    33.3059   141.0661 </r>
       <r>    -2.9359    36.1915   143.0366 </r>
       <r>    -2.8815    45.5998   145.5193 </r>
       <r>    -2.8271    50.7548   148.2827 </r>
       <r>    -2.7726    53.3641   151.1882 </r>
       <r>    -2.7182    50.6729   153.9471 </r>
       <r>    -2.6637    51.7135   156.7627 </r>
       <r>    -2.6093    54.2183   159.7147 </r>
       <r>    -2.5548    42.1349   162.0088 </r>
       <r>    -2.5004    40.1584   164.1952 </r>
       <r>    -2.4459    38.7611   166.3056 </r>
       <r>    -2.3915    41.5780   168.5694 </r>
       <r>    -2.3370    37.4837   170.6102 </r>
       <r>    -2.2826    43.1968   172.9621 </r>
       <r>    -2.2282    47.9614   175.5734 </r>
       <r>    -2.1737    50.7800   178.3382 </r>
       <r>    -2.1193    48.7106   180.9903 </r>
       <r>    -2.0648    54.0261   183.9318 </r>
       <r>    -2.0104    50.3879   186.6752 </r>
       <r>    -1.9559    41.3178   188.9248 </r>
       <r>    -1.9015    42.4382   191.2354 </r>
       <r>    -1.8470    51.0921   194.0172 </r>
       <r>    -1.7926    47.9787   196.6294 </r>
       <r>    -1.7381    47.0111   199.1890 </r>
       <r>    -1.6837    49.4309   201.8803 </r>
       <r>    -1.6292    52.8675   204.7587 </r>
       <r>    -1.5748    56.9656   207.8603 </r>
       <r>    -1.5204    55.2843   210.8703 </r>
       <r>    -1.4659    55.0151   213.8656 </r>
       <r>    -1.4115    54.4120   216.8281 </r>
       <r>    -1.3570    53.1089   219.7197 </r>
       <r>    -1.3026    48.6273   222.3673 </r>
       <r>    -1.2481    47.6638   224.9624 </r>
       <r>    -1.1937    58.4803   228.1464 </r>
       <r>    -1.1392    62.8089   231.5661 </r>
       <r>    -1.0848    60.3705   234.8530 </r>
       <r>    -1.0303    54.3592   237.8127 </r>
       <r>    -0.9759    52.8248   240.6888 </r>
       <r>    -0.9214    53.1454   243.5823 </r>
       <r>    -0.8670    52.8879   246.4618 </r>
       <r>    -0.8126    48.4308   249.0987 </r>
       <r>    -0.7581    42.6511   251.4209 </r>
       <r>    -0.7037    41.3006   253.6695 </r>
       <r>    -0.6492    50.7744   256.4340 </r>
       <r>    -0.5948    42.6123   258.7541 </r>
       <r>    -0.5403    34.0025   260.6054 </r>
       <r>    -0.4859    41.0564   262.8407 </r>
       <r>    -0.4314    41.4144   265.0956 </r>
       <r>    -0.3770    21.1034   266.2446 </r>
       <r>    -0.3225    25.8434   267.6516 </r>
       <r>    -0.2681    31.3285   269.3574 </r>
       <r>    -0.2136    20.4928   270.4731 </r>
       <r>    -0.1592    21.3262   271.6342 </r>
       <r>    -0.1048    23.3716   272.9067 </r>
       <r>    -0.0503    16.2359   273.7907 </r>
       <r>     0.0041    16.2821   274.6772 </r>
       <r>     0.0586    17.3090   275.6196 </r>
       <r>     0.1130     6.5847   275.9781 </r>
       <r>     0.1675     3.0418   276.1437 </r>
       <r>     0.2219     6.4596   276.4954 </r>
       <r>     0.2764     8.7548   276.9721 </r>
       <r>     0.3308    15.3048   277.8054 </r>
       <r>     0.3853    17.2924   278.7469 </r>
       <r>     0.4397    17.4171   279.6952 </r>
       <r>     0.4941    24.7301   281.0416 </r>
       <r>     0.5486    25.4840   282.4291 </r>
       <r>     0.6030    28.3648   283.9735 </r>
       <r>     0.6575    21.2781   285.1320 </r>
       <r>     0.7119    22.5646   286.3605 </r>
       <r>     0.7664    28.7060   287.9235 </r>
       <r>     0.8208    25.8248   289.3295 </r>
       <r>     0.8753    30.5139   290.9909 </r>
       <r>     0.9297    28.2906   292.5312 </r>
       <r>     0.9842    23.4888   293.8101 </r>
       <r>     1.0386    38.4503   295.9035 </r>
       <r>     1.0931    37.0721   297.9220 </r>
       <r>     1.1475    34.2160   299.7849 </r>
       <r>     1.2019    31.9785   301.5260 </r>
       <r>     1.2564    35.1832   303.4416 </r>
       <r>     1.3108    37.6787   305.4930 </r>
       <r>     1.3653    37.7705   307.5495 </r>
       <r>     1.4197    31.4001   309.2591 </r>
       <r>     1.4742    20.1780   310.3577 </r>
       <r>     1.5286    22.9664   311.6081 </r>
       <r>     1.5831    40.6929   313.8237 </r>
       <r>     1.6375    54.8009   316.8074 </r>
       <r>     1.6920    55.6058   319.8349 </r>
       <r>     1.7464    56.0162   322.8848 </r>
       <r>     1.8009    41.9035   325.1662 </r>
       <r>     1.8553    42.3279   327.4708 </r>
       <r>     1.9097    52.2314   330.3146 </r>
       <r>     1.9642    54.9093   333.3042 </r>
       <r>     2.0186    51.0886   336.0858 </r>
       <r>     2.0731    48.9324   338.7499 </r>
       <r>     2.1275    55.4195   341.7673 </r>
       <r>     2.1820    53.9597   344.7052 </r>
       <r>     2.2364    61.5674   348.0573 </r>
       <r>     2.2909    51.6813   350.8711 </r>
       <r>     2.3453    18.5108   351.8790 </r>
       <r>     2.3998     2.1637   351.9968 </r>
       <r>     2.4542     0.0589   352.0000 </r>
       <r>     2.5087     0.0002   352.0000 </r>
       <r>     2.5631     0.0000   352.0000 </r>
       <r>     2.6175     0.0000   352.0000 </r>
       <r>     2.6720     0.0000   352.0000 </r>
       <r>     2.7264     0.0000   352.0000 </r>
       <r>     2.7809     0.0000   352.0000 </r>
       <r>     2.8353     0.0000   352.0000 </r>
       <r>     2.8898     0.0000   352.0000 </r>
       <r>     2.9442     0.0000   352.0000 </r>
       <r>     2.9987     0.0000   352.0000 </r>
       <r>     3.0531     0.0000   352.0000 </r>
      </set>
     </set>
    </array>
   </total>
  </dos>
 </calculation>
 <structure name="finalpos" >
  <crystal>
   <varray name="basis" >
    <v>      13.80799961       0.00000000       0.00000000 </v>
    <v>       0.00000000      12.73600006       0.00000000 </v>
    <v>       0.00000000       0.00000000      16.00000000 </v>
   </varray>
   <i name="volume">   2813.73894219 </i>
   <varray name="rec_basis" >
    <v>       0.07242179       0.00000000       0.00000000 </v>
    <v>       0.00000000       0.07851759       0.00000000 </v>
    <v>       0.00000000       0.00000000       0.06250000 </v>
   </varray>
  </crystal>
  <varray name="positions" >
   <v>       0.62500000       0.04711080       0.63068768 </v>
   <v>       0.35310285       0.05305354       0.62687551 </v>
   <v>       0.89689716       0.05305354       0.62687550 </v>
   <v>       0.12500001       0.55248226       0.62834861 </v>
   <v>       0.62500000       0.54769795       0.63184236 </v>
   <v>       0.37251689       0.54865522       0.63006937 </v>
   <v>       0.87748311       0.54865522       0.63006936 </v>
   <v>       0.12500000       0.37605509       0.40528699 </v>
   <v>       0.62500000       0.37273443       0.41210369 </v>
   <v>       0.37647181       0.37496356       0.40909216 </v>
   <v>       0.87352820       0.37496357       0.40909215 </v>
   <v>       0.12499999       0.87005309       0.39633040 </v>
   <v>       0.38429212       0.87699220       0.40831257 </v>
   <v>       0.86570788       0.87699220       0.40831257 </v>
   <v>      -0.00189185       0.13120424       0.36377818 </v>
   <v>       0.49979290       0.12213396       0.37309457 </v>
   <v>       0.25189187       0.13120425       0.36377817 </v>
   <v>       0.75020710       0.12213397       0.37309456 </v>
   <v>      -0.00290373       0.62743413       0.37023164 </v>
   <v>       0.50367557       0.63549681       0.37632349 </v>
   <v>       0.25290374       0.62743413       0.37023164 </v>
   <v>       0.74632443       0.63549681       0.37632347 </v>
   <v>       0.00651523       0.30123324       0.59265324 </v>
   <v>       0.49759078       0.30244798       0.59303177 </v>
   <v>       0.24348477       0.30123325       0.59265323 </v>
   <v>       0.75240922       0.30244797       0.59303175 </v>
   <v>       0.00847088       0.81032112       0.58831521 </v>
   <v>       0.49606610       0.80720497       0.59605485 </v>
   <v>       0.24152911       0.81032113       0.58831522 </v>
   <v>       0.75393389       0.80720497       0.59605484 </v>
   <v>       0.12499998       0.16942130       0.48853505 </v>
   <v>       0.62500000       0.17509532       0.49592956 </v>
   <v>       0.37179175       0.18052620       0.49293513 </v>
   <v>       0.87820825       0.18052619       0.49293516 </v>
   <v>       0.12500000       0.67730843       0.48998966 </v>
   <v>       0.62500000       0.68377147       0.50360523 </v>
   <v>       0.37420221       0.68084844       0.49641434 </v>
   <v>       0.87579779       0.68084843       0.49641435 </v>
   <v>       0.01489715       0.00271422       0.49699738 </v>
   <v>       0.48883550       0.00362179       0.51237604 </v>
   <v>       0.23510284       0.00271421       0.49699739 </v>
   <v>       0.76116450       0.00362179       0.51237604 </v>
   <v>       0.00241817       0.49735596       0.50550705 </v>
   <v>       0.49969914       0.49946367       0.50824879 </v>
   <v>       0.24758183       0.49735595       0.50550706 </v>
   <v>       0.75030087       0.49946368       0.50824879 </v>
  </varray>
 </structure>
</modeling>
