<?xml version="1.0" encoding="ISO-8859-1"?>
<modeling>
 <generator>
  <i name="program" type="string">vasp </i>
  <i name="version" type="string">5.3.5  </i>
  <i name="subversion" type="string">31Mar14 (build Mar 18 2017 11:34:20) complex                          parallel </i>
  <i name="platform" type="string">LinuxIFC </i>
  <i name="date" type="string">2018 02 12 </i>
  <i name="time" type="string">09:13:16 </i>
 </generator>
 <incar>
  <i type="string" name="SYSTEM"> MoTe2</i>
  <i type="string" name="PREC">accurate</i>
  <i type="string" name="ALGO"> Normal</i>
  <i type="logical" name="ADDGRID"> T  </i>
  <i type="int" name="IBRION">     2</i>
  <i name="EDIFF">      0.00001000</i>
  <i type="int" name="NSW">  1000</i>
  <i type="int" name="ISIF">     2</i>
  <i type="int" name="ISYM">     0</i>
  <i name="ENCUT">    400.00000000</i>
  <i name="POTIM">      0.50000000</i>
  <i type="logical" name="LREAL"> F  </i>
  <i type="int" name="ISMEAR">     0</i>
  <i name="SIGMA">      0.05000000</i>
  <i type="int" name="NWRITE">     1</i>
  <i type="logical" name="LWAVE"> F  </i>
  <i type="logical" name="LCHARG"> F  </i>
 </incar>
 <kpoints>
  <generation param="Monkhorst-Pack">
   <v type="int" name="divisions">       4        4        1 </v>
   <v name="usershift">      0.00000000       0.00000000       0.00000000 </v>
   <v name="genvec1">      0.25000000       0.00000000       0.00000000 </v>
   <v name="genvec2">      0.00000000       0.25000000       0.00000000 </v>
   <v name="genvec3">      0.00000000       0.00000000       1.00000000 </v>
   <v name="shift">      0.50000000       0.50000000       0.00000000 </v>
  </generation>
  <varray name="kpointlist" >
   <v>       0.12500000       0.12500000       0.00000000 </v>
   <v>       0.37500000       0.12500000       0.00000000 </v>
   <v>      -0.37500000       0.12500000       0.00000000 </v>
   <v>      -0.12500000       0.12500000       0.00000000 </v>
   <v>       0.12500000       0.37500000       0.00000000 </v>
   <v>       0.37500000       0.37500000       0.00000000 </v>
   <v>      -0.37500000       0.37500000       0.00000000 </v>
   <v>      -0.12500000       0.37500000       0.00000000 </v>
  </varray>
  <varray name="weights" >
   <v>       0.12500000 </v>
   <v>       0.12500000 </v>
   <v>       0.12500000 </v>
   <v>       0.12500000 </v>
   <v>       0.12500000 </v>
   <v>       0.12500000 </v>
   <v>       0.12500000 </v>
   <v>       0.12500000 </v>
  </varray>
 </kpoints>
 <parameters>
  <separator name="general" >
   <i type="string" name="SYSTEM">MoTe2</i>
   <i type="logical" name="LCOMPAT"> F  </i>
  </separator>
  <separator name="electronic" >
   <i type="string" name="PREC">accura</i>
   <i name="ENMAX">    400.00000000</i>
   <i name="ENAUG">    368.79200000</i>
   <i name="EDIFF">      0.00001000</i>
   <i type="int" name="IALGO">    38</i>
   <i type="int" name="IWAVPR">    11</i>
   <i type="int" name="NBANDS">   176</i>
   <i name="NELECT">    282.00000000</i>
   <i type="int" name="TURBO">     0</i>
   <i type="int" name="IRESTART">     0</i>
   <i type="int" name="NREBOOT">     0</i>
   <i type="int" name="NMIN">     0</i>
   <i name="EREF">      0.00000000</i>
   <separator name="electronic smearing" >
    <i type="int" name="ISMEAR">     0</i>
    <i name="SIGMA">      0.05000000</i>
    <i name="KSPACING">      0.50000000</i>
    <i type="logical" name="KGAMMA"> T  </i>
   </separator>
   <separator name="electronic projectors" >
    <i type="logical" name="LREAL"> F  </i>
    <v name="ROPT">      0.00000000      0.00000000</v>
    <i type="int" name="LMAXPAW">  -100</i>
    <i type="int" name="LMAXMIX">     2</i>
    <i type="logical" name="NLSPLINE"> F  </i>
   </separator>
   <separator name="electronic startup" >
    <i type="int" name="ISTART">     0</i>
    <i type="int" name="ICHARG">     2</i>
    <i type="int" name="INIWAV">     1</i>
   </separator>
   <separator name="electronic spin" >
    <i type="int" name="ISPIN">     1</i>
    <i type="logical" name="LNONCOLLINEAR"> F  </i>
    <v name="MAGMOM">      1.00000000      1.00000000      1.00000000      1.00000000      1.00000000      1.00000000      1.00000000      1.00000000      1.00000000      1.00000000      1.00000000      1.00000000      1.00000000      1.00000000      1.00000000      1.00000000      1.00000000      1.00000000      1.00000000      1.00000000
      1.00000000      1.00000000      1.00000000      1.00000000      1.00000000      1.00000000      1.00000000      1.00000000      1.00000000      1.00000000      1.00000000      1.00000000      1.00000000      1.00000000      1.00000000      1.00000000      1.00000000      1.00000000      1.00000000      1.00000000
      1.00000000      1.00000000      1.00000000      1.00000000      1.00000000      1.00000000      1.00000000</v>
    <i name="NUPDOWN">     -1.00000000</i>
    <i type="logical" name="LSORBIT"> F  </i>
    <v name="SAXIS">      0.00000000      0.00000000      1.00000000</v>
    <i type="logical" name="LSPIRAL"> F  </i>
    <v name="QSPIRAL">      0.00000000      0.00000000      0.00000000</v>
    <i type="logical" name="LZEROZ"> F  </i>
   </separator>
   <separator name="electronic exchange-correlation" >
    <i type="logical" name="LASPH"> F  </i>
    <i type="logical" name="LMETAGGA"> F  </i>
   </separator>
   <separator name="electronic convergence" >
    <i type="int" name="NELM">    60</i>
    <i type="int" name="NELMDL">     0</i>
    <i type="int" name="NELMIN">     2</i>
    <i name="ENINI">    400.00000000</i>
    <separator name="electronic convergence detail" >
     <i type="logical" name="LDIAG"> T  </i>
     <i type="logical" name="LSUBROT"> F  </i>
     <i name="WEIMIN">      0.00100000</i>
     <i name="EBREAK">      0.00000001</i>
     <i name="DEPER">      0.30000000</i>
     <i type="int" name="NRMM">     4</i>
     <i name="TIME">      0.40000000</i>
    </separator>
   </separator>
   <separator name="electronic mixer" >
    <i name="AMIX">      0.40000000</i>
    <i name="BMIX">      1.00000000</i>
    <i name="AMIN">      0.10000000</i>
    <i name="AMIX_MAG">      1.60000000</i>
    <i name="BMIX_MAG">      1.00000000</i>
    <separator name="electronic mixer details" >
     <i type="int" name="IMIX">     4</i>
     <i type="int" name="MAXMIX">   -45</i>
     <i name="WC">    100.00000000</i>
     <i type="int" name="INIMIX">     1</i>
     <i type="int" name="MIXPRE">     1</i>
     <i type="int" name="MREMOVE">     5</i>
    </separator>
   </separator>
   <separator name="electronic dipolcorrection" >
    <i type="logical" name="LDIPOL"> F  </i>
    <i type="logical" name="LMONO"> F  </i>
    <i type="int" name="IDIPOL">     0</i>
    <i name="EPSILON">      1.00000000</i>
    <v name="DIPOL">   -100.00000000   -100.00000000   -100.00000000</v>
    <i name="EFIELD">      0.00000000</i>
   </separator>
  </separator>
  <separator name="grids" >
   <i type="int" name="NGX">    90</i>
   <i type="int" name="NGY">    84</i>
   <i type="int" name="NGZ">   108</i>
   <i type="int" name="NGXF">   180</i>
   <i type="int" name="NGYF">   168</i>
   <i type="int" name="NGZF">   216</i>
   <i type="logical" name="ADDGRID"> T  </i>
  </separator>
  <separator name="ionic" >
   <i type="int" name="NSW">  1000</i>
   <i type="int" name="IBRION">     2</i>
   <i type="int" name="ISIF">     2</i>
   <i name="PSTRESS">      0.00000000</i>
   <i name="EDIFFG">      0.00010000</i>
   <i type="int" name="NFREE">     1</i>
   <i name="POTIM">      0.50000000</i>
   <i name="SMASS">     -3.00000000</i>
   <i name="SCALEE">      1.00000000</i>
  </separator>
  <separator name="ionic md" >
   <i name="TEBEG">      0.00010000</i>
   <i name="TEEND">      0.00010000</i>
   <i type="int" name="NBLOCK">     1</i>
   <i type="int" name="KBLOCK">  1000</i>
   <i type="int" name="NPACO">   256</i>
   <i name="APACO">     16.00000000</i>
  </separator>
  <separator name="symmetry" >
   <i type="int" name="ISYM">     0</i>
   <i name="SYMPREC">      0.00001000</i>
  </separator>
  <separator name="dos" >
   <i type="logical" name="LORBIT"> F  </i>
   <v name="RWIGS">     -1.00000000     -1.00000000</v>
   <i type="int" name="NEDOS">   301</i>
   <i name="EMIN">     10.00000000</i>
   <i name="EMAX">    -10.00000000</i>
   <i name="EFERMI">      0.00000000</i>
  </separator>
  <separator name="writing" >
   <i type="int" name="NWRITE">     1</i>
   <i type="logical" name="LWAVE"> F  </i>
   <i type="logical" name="LCHARG"> F  </i>
   <i type="logical" name="LPARD"> F  </i>
   <i type="logical" name="LVTOT"> F  </i>
   <i type="logical" name="LVHAR"> F  </i>
   <i type="logical" name="LELF"> F  </i>
   <i type="logical" name="LOPTICS"> F  </i>
   <v name="STM">      0.00000000      0.00000000      0.00000000      0.00000000      0.00000000      0.00000000      0.00000000</v>
  </separator>
  <separator name="performance" >
   <i type="int" name="NPAR">    16</i>
   <i type="int" name="NSIM">     4</i>
   <i type="int" name="NBLK">    -1</i>
   <i type="logical" name="LPLANE"> T  </i>
   <i type="logical" name="LSCALAPACK"> T  </i>
   <i type="logical" name="LSCAAWARE"> F  </i>
   <i type="logical" name="LSCALU"> F  </i>
   <i type="logical" name="LASYNC"> F  </i>
   <i type="logical" name="LORBITALREAL"> F  </i>
  </separator>
  <separator name="miscellaneous" >
   <i type="int" name="IDIOT">     3</i>
   <i type="logical" name="LMUSIC"> F  </i>
   <v name="POMASS">    127.60000000     95.94000000</v>
   <v name="DARWINR">      0.00000000      0.00000000</v>
   <v name="DARWINV">      1.00000000      1.00000000</v>
   <i type="logical" name="LCORR"> T  </i>
  </separator>
  <i type="logical" name="GGA_COMPAT"> T  </i>
  <i type="logical" name="LBERRY"> F  </i>
  <i type="int" name="ICORELEVEL">     0</i>
  <i type="logical" name="LDAU"> F  </i>
  <i type="int" name="I_CONSTRAINED_M">     0</i>
  <separator name="electronic exchange-correlation" >
   <i type="string" name="GGA">--</i>
   <i type="int" name="VOSKOWN">     0</i>
   <i type="logical" name="LHFCALC"> F  </i>
   <i type="string" name="PRECFOCK"></i>
   <i type="logical" name="LSYMGRAD"> F  </i>
   <i type="logical" name="LHFONE"> F  </i>
   <i type="logical" name="LRHFCALC"> F  </i>
   <i type="logical" name="LTHOMAS"> F  </i>
   <i type="logical" name="LMODELHF"> F  </i>
   <i name="ENCUT4O">     -1.00000000</i>
   <i type="int" name="EXXOEP">     0</i>
   <i type="int" name="FOURORBIT">     0</i>
   <i name="AEXX">      0.00000000</i>
   <i name="HFALPHA">      0.00000000</i>
   <i name="MCALPHA">      0.00000000</i>
   <i name="ALDAX">      1.00000000</i>
   <i name="AGGAX">      1.00000000</i>
   <i name="ALDAC">      1.00000000</i>
   <i name="AGGAC">      1.00000000</i>
   <i type="int" name="NKREDX">     1</i>
   <i type="int" name="NKREDY">     1</i>
   <i type="int" name="NKREDZ">     1</i>
   <i type="logical" name="SHIFTRED"> F  </i>
   <i type="logical" name="ODDONLY"> F  </i>
   <i type="logical" name="EVENONLY"> F  </i>
   <i type="int" name="LMAXFOCK">     0</i>
   <i type="int" name="NMAXFOCKAE">     0</i>
   <i type="logical" name="LFOCKAEDFT"> F  </i>
   <i name="HFSCREEN">      0.00000000</i>
   <i name="HFSCREENC">      0.00000000</i>
   <i type="int" name="NBANDSGWLOW">     0</i>
  </separator>
  <separator name="vdW DFT" >
   <i type="logical" name="LUSE_VDW"> F  </i>
   <i name="Zab_VDW">     -0.84910000</i>
   <i name="PARAM1">      0.12340000</i>
   <i name="PARAM2">      1.00000000</i>
   <i name="PARAM3">      0.00000000</i>
  </separator>
  <separator name="model GW" >
   <i type="int" name="MODEL_GW">     0</i>
   <i name="MODEL_EPS0">     35.92007160</i>
   <i name="MODEL_ALPHA">      1.00000000</i>
  </separator>
  <separator name="linear response parameters" >
   <i type="logical" name="LEPSILON"> F  </i>
   <i type="logical" name="LRPA"> F  </i>
   <i type="logical" name="LNABLA"> F  </i>
   <i type="logical" name="LVEL"> F  </i>
   <i type="int" name="KINTER">     0</i>
   <i name="CSHIFT">      0.10000000</i>
   <i name="OMEGAMAX">     -1.00000000</i>
   <i name="DEG_THRESHOLD">      0.00200000</i>
  </separator>
  <separator name="orbital magnetization" >
   <i type="logical" name="NUCIND"> F  </i>
   <v name="MAGPOS">      0.00000000      0.00000000      0.00000000</v>
   <i type="logical" name="LNICSALL"> T  </i>
   <i type="logical" name="ORBITALMAG"> F  </i>
   <i type="logical" name="LMAGBLOCH"> F  </i>
   <i type="logical" name="LCHIMAG"> F  </i>
   <i type="logical" name="LGAUGE"> T  </i>
   <i type="int" name="MAGATOM">     0</i>
   <v name="MAGDIPOL">      0.00000000      0.00000000      0.00000000</v>
   <v name="AVECCONST">      0.00000000      0.00000000      0.00000000</v>
  </separator>
  <separator name="response functions" >
   <i type="logical" name="LADDER"> F  </i>
   <i type="logical" name="LFXC"> F  </i>
   <i type="logical" name="LHARTREE"> T  </i>
   <i type="int" name="IBSE">     0</i>
   <i type="logical" name="LTCTE"> F  </i>
   <i type="logical" name="LTETE"> F  </i>
   <i type="logical" name="LTRIPLET"> F  </i>
   <i type="logical" name="LFXCEPS"> F  </i>
   <i type="logical" name="LFXHEG"> F  </i>
   <i type="logical" name="L2ORDER"> F  </i>
   <i type="logical" name="LUSEW"> F  </i>
   <i name="ENCUTGW">     -2.00000000</i>
   <i name="ENCUTGWSOFT">     -2.00000000</i>
   <i name="ENCUTLF">     -1.00000000</i>
   <i type="int" name="LMAXMP2">    -1</i>
   <i name="SCISSOR">      0.00000000</i>
   <i type="int" name="NOMEGA">     0</i>
   <i type="int" name="NOMEGAR">     0</i>
   <i type="int" name="NBANDSGW">    -1</i>
   <i type="int" name="NBANDSO">    -1</i>
   <i type="int" name="NBANDSV">    -1</i>
   <i type="int" name="NELM">     1</i>
   <i type="int" name="DIM">     3</i>
   <i type="int" name="ANTIRES">     0</i>
   <i name="OMEGAMAX">    -30.00000000</i>
   <i name="OMEGAMIN">    -30.00000000</i>
   <i name="OMEGATL">   -200.00000000</i>
   <i type="int" name="OMEGAGRID">     0</i>
   <i name="CSHIFT">     -0.10000000</i>
   <i type="logical" name="SELFENERGY"> F  </i>
   <i type="logical" name="LSPECTRAL"> F  </i>
   <i type="logical" name="ODDONLYGW"> F  </i>
   <i type="logical" name="EVENONLYGW"> F  </i>
   <i type="int" name="NKREDLFX">     1</i>
   <i type="int" name="NKREDLFY">     1</i>
   <i type="int" name="NKREDLFZ">     1</i>
   <i type="int" name="MAXMEM">  1800</i>
   <i type="int" name="TELESCOPE">     0</i>
   <i type="int" name="TAUPAR">     1</i>
  </separator>
  <separator name="External order field" >
   <i name="OFIELD_KAPPA">      0.00000000</i>
   <v name="OFIELD_K">      0.00000000      0.00000000      0.00000000</v>
   <i name="OFIELD_Q6_NEAR">      0.00000000</i>
   <i name="OFIELD_Q6_FAR">      0.00000000</i>
   <i name="OFIELD_A">      0.00000000</i>
  </separator>
 </parameters>
 <atominfo>
  <atoms>      47 </atoms>
  <types>       2 </types>
  <array name="atoms" >
   <dimension dim="1">ion</dimension>
   <field type="string">element</field>
   <field type="int">atomtype</field>
   <set>
    <rc><c>Te</c><c>   1</c></rc>
    <rc><c>Te</c><c>   1</c></rc>
    <rc><c>Te</c><c>   1</c></rc>
    <rc><c>Te</c><c>   1</c></rc>
    <rc><c>Te</c><c>   1</c></rc>
    <rc><c>Te</c><c>   1</c></rc>
    <rc><c>Te</c><c>   1</c></rc>
    <rc><c>Te</c><c>   1</c></rc>
    <rc><c>Te</c><c>   1</c></rc>
    <rc><c>Te</c><c>   1</c></rc>
    <rc><c>Te</c><c>   1</c></rc>
    <rc><c>Te</c><c>   1</c></rc>
    <rc><c>Te</c><c>   1</c></rc>
    <rc><c>Te</c><c>   1</c></rc>
    <rc><c>Te</c><c>   1</c></rc>
    <rc><c>Te</c><c>   1</c></rc>
    <rc><c>Te</c><c>   1</c></rc>
    <rc><c>Te</c><c>   1</c></rc>
    <rc><c>Te</c><c>   1</c></rc>
    <rc><c>Te</c><c>   1</c></rc>
    <rc><c>Te</c><c>   1</c></rc>
    <rc><c>Te</c><c>   1</c></rc>
    <rc><c>Te</c><c>   1</c></rc>
    <rc><c>Te</c><c>   1</c></rc>
    <rc><c>Te</c><c>   1</c></rc>
    <rc><c>Te</c><c>   1</c></rc>
    <rc><c>Te</c><c>   1</c></rc>
    <rc><c>Te</c><c>   1</c></rc>
    <rc><c>Te</c><c>   1</c></rc>
    <rc><c>Te</c><c>   1</c></rc>
    <rc><c>Te</c><c>   1</c></rc>
    <rc><c>Mo</c><c>   2</c></rc>
    <rc><c>Mo</c><c>   2</c></rc>
    <rc><c>Mo</c><c>   2</c></rc>
    <rc><c>Mo</c><c>   2</c></rc>
    <rc><c>Mo</c><c>   2</c></rc>
    <rc><c>Mo</c><c>   2</c></rc>
    <rc><c>Mo</c><c>   2</c></rc>
    <rc><c>Mo</c><c>   2</c></rc>
    <rc><c>Mo</c><c>   2</c></rc>
    <rc><c>Mo</c><c>   2</c></rc>
    <rc><c>Mo</c><c>   2</c></rc>
    <rc><c>Mo</c><c>   2</c></rc>
    <rc><c>Mo</c><c>   2</c></rc>
    <rc><c>Mo</c><c>   2</c></rc>
    <rc><c>Mo</c><c>   2</c></rc>
    <rc><c>Mo</c><c>   2</c></rc>
   </set>
  </array>
  <array name="atomtypes" >
   <dimension dim="1">type</dimension>
   <field type="int">atomspertype</field>
   <field type="string">element</field>
   <field>mass</field>
   <field>valence</field>
   <field type="string">pseudopotential</field>
   <set>
    <rc><c>  31</c><c>Te</c><c>    127.60000000</c><c>      6.00000000</c><c>  PAW_PBE Te 08Apr2002                  </c></rc>
    <rc><c>  16</c><c>Mo</c><c>     95.94000000</c><c>      6.00000000</c><c>  PAW_PBE Mo 08Apr2002                  </c></rc>
   </set>
  </array>
 </atominfo>
 <structure name="initialpos" >
  <crystal>
   <varray name="basis" >
    <v>      13.80799961       0.00000000       0.00000000 </v>
    <v>       0.00000000      12.73600006       0.00000000 </v>
    <v>       0.00000000       0.00000000      16.00000000 </v>
   </varray>
   <i name="volume">   2813.73894219 </i>
   <varray name="rec_basis" >
    <v>       0.07242179       0.00000000       0.00000000 </v>
    <v>       0.00000000       0.07851759       0.00000000 </v>
    <v>       0.00000000       0.00000000       0.06250000 </v>
   </varray>
  </crystal>
  <varray name="positions" >
   <v>       0.62500000       0.05081658       0.62913311 </v>
   <v>       0.37500000       0.05081658       0.62913311 </v>
   <v>       0.87500000       0.05081658       0.62913311 </v>
   <v>       0.12500000       0.55081660       0.62913311 </v>
   <v>       0.62500000       0.55081660       0.62913311 </v>
   <v>       0.37500000       0.55081660       0.62913311 </v>
   <v>       0.87500000       0.55081660       0.62913311 </v>
   <v>       0.12500000       0.37457836       0.40758437 </v>
   <v>       0.62500000       0.37457836       0.40758437 </v>
   <v>       0.37500000       0.37457836       0.40758437 </v>
   <v>       0.87500000       0.37457836       0.40758437 </v>
   <v>       0.12500000       0.87457836       0.40758437 </v>
   <v>       0.62500000       0.87457836       0.40758437 </v>
   <v>       0.37500000       0.87457836       0.40758437 </v>
   <v>       0.87500000       0.87457836       0.40758437 </v>
   <v>       0.00000000       0.12870525       0.37086561 </v>
   <v>       0.50000000       0.12870525       0.37086561 </v>
   <v>       0.25000000       0.12870525       0.37086561 </v>
   <v>       0.75000000       0.12870525       0.37086561 </v>
   <v>       0.00000000       0.62870526       0.37086561 </v>
   <v>       0.50000000       0.62870526       0.37086561 </v>
   <v>       0.25000000       0.62870526       0.37086561 </v>
   <v>       0.75000000       0.62870526       0.37086561 </v>
   <v>       0.00000000       0.30494031       0.59241623 </v>
   <v>       0.50000000       0.30494031       0.59241623 </v>
   <v>       0.25000000       0.30494031       0.59241623 </v>
   <v>       0.75000000       0.30494031       0.59241623 </v>
   <v>       0.00000000       0.80494034       0.59241623 </v>
   <v>       0.50000000       0.80494034       0.59241623 </v>
   <v>       0.25000000       0.80494034       0.59241623 </v>
   <v>       0.75000000       0.80494034       0.59241623 </v>
   <v>       0.12500000       0.18029837       0.49406749 </v>
   <v>       0.62500000       0.18029837       0.49406749 </v>
   <v>       0.37500000       0.18029837       0.49406749 </v>
   <v>       0.87500000       0.18029837       0.49406749 </v>
   <v>       0.12500000       0.68029839       0.49406749 </v>
   <v>       0.62500000       0.68029839       0.49406749 </v>
   <v>       0.37500000       0.68029839       0.49406749 </v>
   <v>       0.87500000       0.68029839       0.49406749 </v>
   <v>       0.00000000       0.99921954       0.50593311 </v>
   <v>       0.50000000       0.99921954       0.50593311 </v>
   <v>       0.25000000       0.99921954       0.50593311 </v>
   <v>       0.75000000       0.99921954       0.50593311 </v>
   <v>       0.00000000       0.49921954       0.50593311 </v>
   <v>       0.50000000       0.49921954       0.50593311 </v>
   <v>       0.25000000       0.49921954       0.50593311 </v>
   <v>       0.75000000       0.49921954       0.50593311 </v>
  </varray>
 </structure>
 <calculation>
  <scstep>
   <time name="dav">    5.98    6.03</time>
   <time name="total">    6.34    6.41</time>
   <energy>
    <i name="alphaZ">    196.90117899 </i>
    <i name="ewald">  13226.76266347 </i>
    <i name="hartreedc"> -23228.82143198 </i>
    <i name="XCdc">  -1843.62553536 </i>
    <i name="pawpsdc">  10689.39840907 </i>
    <i name="pawaedc">  -8357.71722261 </i>
    <i name="eentropy">     -0.02983476 </i>
    <i name="bandstr">    545.06512208 </i>
    <i name="atom">  10401.64288489 </i>
    <i name="e_fr_energy">   1629.57623379 </i>
    <i name="e_wo_entrp">   1629.60606855 </i>
    <i name="e_0_energy">   1629.59115117 </i>
   </energy>
  </scstep>
  <scstep>
   <time name="dav">    7.48    7.58</time>
   <time name="total">    7.48    7.58</time>
   <energy>
    <i name="e_fr_energy">    -79.38180238 </i>
    <i name="e_wo_entrp">    -79.36959364 </i>
    <i name="e_0_energy">    -79.37569801 </i>
   </energy>
  </scstep>
  <scstep>
   <time name="dav">    6.51    6.51</time>
   <time name="total">    6.51    6.51</time>
   <energy>
    <i name="e_fr_energy">   -281.07216601 </i>
    <i name="e_wo_entrp">   -281.05570179 </i>
    <i name="e_0_energy">   -281.06393390 </i>
   </energy>
  </scstep>
  <scstep>
   <time name="dav">    8.07    8.07</time>
   <time name="total">    8.07    8.07</time>
   <energy>
    <i name="e_fr_energy">   -293.02900891 </i>
    <i name="e_wo_entrp">   -293.01395873 </i>
    <i name="e_0_energy">   -293.02148382 </i>
   </energy>
  </scstep>
  <scstep>
   <time name="dav">    8.05    8.05</time>
   <time name="total">    8.47    8.47</time>
   <energy>
    <i name="e_fr_energy">   -293.36534620 </i>
    <i name="e_wo_entrp">   -293.35009050 </i>
    <i name="e_0_energy">   -293.35771835 </i>
   </energy>
  </scstep>
  <scstep>
   <time name="dav">    7.42    7.51</time>
   <time name="total">    8.14    8.23</time>
   <energy>
    <i name="e_fr_energy">   -286.15419258 </i>
    <i name="e_wo_entrp">   -286.13605442 </i>
    <i name="e_0_energy">   -286.14512350 </i>
   </energy>
  </scstep>
  <scstep>
   <time name="dav">    8.29    8.33</time>
   <time name="total">    9.01    9.05</time>
   <energy>
    <i name="e_fr_energy">   -288.06987718 </i>
    <i name="e_wo_entrp">   -288.03928941 </i>
    <i name="e_0_energy">   -288.05458330 </i>
   </energy>
  </scstep>
  <scstep>
   <time name="dav">    7.80    7.81</time>
   <time name="total">    8.52    8.53</time>
   <energy>
    <i name="e_fr_energy">   -282.88895714 </i>
    <i name="e_wo_entrp">   -282.88028080 </i>
    <i name="e_0_energy">   -282.88461897 </i>
   </energy>
  </scstep>
  <scstep>
   <time name="dav">    7.76    7.76</time>
   <time name="total">    8.48    8.48</time>
   <energy>
    <i name="e_fr_energy">   -282.06661655 </i>
    <i name="e_wo_entrp">   -282.05015406 </i>
    <i name="e_0_energy">   -282.05838530 </i>
   </energy>
  </scstep>
  <scstep>
   <time name="dav">    7.17    7.19</time>
   <time name="total">    7.88    7.91</time>
   <energy>
    <i name="e_fr_energy">   -281.96200038 </i>
    <i name="e_wo_entrp">   -281.94612947 </i>
    <i name="e_0_energy">   -281.95406492 </i>
   </energy>
  </scstep>
  <scstep>
   <time name="dav">    7.67    7.67</time>
   <time name="total">    8.38    8.39</time>
   <energy>
    <i name="e_fr_energy">   -281.95973715 </i>
    <i name="e_wo_entrp">   -281.94314146 </i>
    <i name="e_0_energy">   -281.95143931 </i>
   </energy>
  </scstep>
  <scstep>
   <time name="dav">    7.72    7.73</time>
   <time name="total">    8.46    8.46</time>
   <energy>
    <i name="e_fr_energy">   -281.91412048 </i>
    <i name="e_wo_entrp">   -281.89729209 </i>
    <i name="e_0_energy">   -281.90570628 </i>
   </energy>
  </scstep>
  <scstep>
   <time name="dav">    7.55    7.57</time>
   <time name="total">    8.31    8.33</time>
   <energy>
    <i name="e_fr_energy">   -281.90284046 </i>
    <i name="e_wo_entrp">   -281.88558810 </i>
    <i name="e_0_energy">   -281.89421428 </i>
   </energy>
  </scstep>
  <scstep>
   <time name="dav">    7.34    7.34</time>
   <time name="total">    8.05    8.05</time>
   <energy>
    <i name="e_fr_energy">   -281.89848435 </i>
    <i name="e_wo_entrp">   -281.88129559 </i>
    <i name="e_0_energy">   -281.88988997 </i>
   </energy>
  </scstep>
  <scstep>
   <time name="dav">    7.75    7.75</time>
   <time name="total">    8.47    8.47</time>
   <energy>
    <i name="e_fr_energy">   -281.89402131 </i>
    <i name="e_wo_entrp">   -281.87697565 </i>
    <i name="e_0_energy">   -281.88549848 </i>
   </energy>
  </scstep>
  <scstep>
   <time name="dav">    7.07    7.08</time>
   <time name="total">    7.79    7.80</time>
   <energy>
    <i name="e_fr_energy">   -281.89133438 </i>
    <i name="e_wo_entrp">   -281.87423344 </i>
    <i name="e_0_energy">   -281.88278391 </i>
   </energy>
  </scstep>
  <scstep>
   <time name="dav">    7.42    7.44</time>
   <time name="total">    8.14    8.16</time>
   <energy>
    <i name="e_fr_energy">   -281.89022331 </i>
    <i name="e_wo_entrp">   -281.87310506 </i>
    <i name="e_0_energy">   -281.88166419 </i>
   </energy>
  </scstep>
  <scstep>
   <time name="dav">    7.58    7.58</time>
   <time name="total">    8.30    8.30</time>
   <energy>
    <i name="e_fr_energy">   -281.88946536 </i>
    <i name="e_wo_entrp">   -281.87235041 </i>
    <i name="e_0_energy">   -281.88090789 </i>
   </energy>
  </scstep>
  <scstep>
   <time name="dav">    7.60    7.60</time>
   <time name="total">    8.31    8.32</time>
   <energy>
    <i name="e_fr_energy">   -281.88927673 </i>
    <i name="e_wo_entrp">   -281.87217295 </i>
    <i name="e_0_energy">   -281.88072484 </i>
   </energy>
  </scstep>
  <scstep>
   <time name="dav">    7.30    7.31</time>
   <time name="total">    8.02    8.03</time>
   <energy>
    <i name="e_fr_energy">   -281.88964861 </i>
    <i name="e_wo_entrp">   -281.87254414 </i>
    <i name="e_0_energy">   -281.88109637 </i>
   </energy>
  </scstep>
  <scstep>
   <time name="dav">    6.90    6.93</time>
   <time name="total">    7.62    7.64</time>
   <energy>
    <i name="e_fr_energy">   -281.89079204 </i>
    <i name="e_wo_entrp">   -281.87366389 </i>
    <i name="e_0_energy">   -281.88222797 </i>
   </energy>
  </scstep>
  <scstep>
   <time name="dav">    6.20    6.20</time>
   <time name="total">    6.92    6.92</time>
   <energy>
    <i name="e_fr_energy">   -281.89131653 </i>
    <i name="e_wo_entrp">   -281.87420158 </i>
    <i name="e_0_energy">   -281.88275905 </i>
   </energy>
  </scstep>
  <scstep>
   <time name="dav">    6.29    6.29</time>
   <time name="total">    7.02    7.02</time>
   <energy>
    <i name="e_fr_energy">   -281.89223839 </i>
    <i name="e_wo_entrp">   -281.87511968 </i>
    <i name="e_0_energy">   -281.88367903 </i>
   </energy>
  </scstep>
  <scstep>
   <time name="dav">    5.13    5.13</time>
   <time name="total">    5.85    5.85</time>
   <energy>
    <i name="e_fr_energy">   -281.89302781 </i>
    <i name="e_wo_entrp">   -281.87590990 </i>
    <i name="e_0_energy">   -281.88446886 </i>
   </energy>
  </scstep>
  <scstep>
   <time name="dav">    4.67    4.67</time>
   <time name="total">    5.38    5.39</time>
   <energy>
    <i name="e_fr_energy">   -281.89326189 </i>
    <i name="e_wo_entrp">   -281.87614404 </i>
    <i name="e_0_energy">   -281.88470296 </i>
   </energy>
  </scstep>
  <scstep>
   <time name="dav">    4.42    4.44</time>
   <time name="total">    5.13    5.16</time>
   <energy>
    <i name="e_fr_energy">   -281.89337430 </i>
    <i name="e_wo_entrp">   -281.87625640 </i>
    <i name="e_0_energy">   -281.88481535 </i>
   </energy>
  </scstep>
  <scstep>
   <time name="dav">    4.56    4.56</time>
   <time name="total">    5.28    5.28</time>
   <energy>
    <i name="e_fr_energy">   -281.89349802 </i>
    <i name="e_wo_entrp">   -281.87638111 </i>
    <i name="e_0_energy">   -281.88493956 </i>
   </energy>
  </scstep>
  <scstep>
   <time name="dav">    4.53    4.53</time>
   <time name="total">    5.24    5.24</time>
   <energy>
    <i name="e_fr_energy">   -281.89353484 </i>
    <i name="e_wo_entrp">   -281.87641645 </i>
    <i name="e_0_energy">   -281.88497565 </i>
   </energy>
  </scstep>
  <scstep>
   <time name="dav">    4.30    4.30</time>
   <time name="total">    5.03    5.03</time>
   <energy>
    <i name="e_fr_energy">   -281.89355026 </i>
    <i name="e_wo_entrp">   -281.87643252 </i>
    <i name="e_0_energy">   -281.88499139 </i>
   </energy>
  </scstep>
  <scstep>
   <time name="dav">    4.56    4.56</time>
   <time name="total">    5.29    5.30</time>
   <energy>
    <i name="e_fr_energy">   -281.89356210 </i>
    <i name="e_wo_entrp">   -281.87644456 </i>
    <i name="e_0_energy">   -281.88500333 </i>
   </energy>
  </scstep>
  <scstep>
   <time name="dav">    4.31    4.31</time>
   <time name="total">    4.61    4.61</time>
   <energy>
    <i name="alphaZ">    196.90117899 </i>
    <i name="ewald">  13226.76266347 </i>
    <i name="hartreedc"> -23377.66926187 </i>
    <i name="XCdc">  -1831.83385603 </i>
    <i name="pawpsdc">  20914.19368772 </i>
    <i name="pawaedc"> -18603.71978031 </i>
    <i name="eentropy">     -0.01711776 </i>
    <i name="bandstr">  -1208.15396449 </i>
    <i name="atom">  10401.64288489 </i>
    <i name="e_fr_energy">   -281.89356540 </i>
    <i name="e_wo_entrp">   -281.87644764 </i>
    <i name="e_0_energy">   -281.88500652 </i>
   </energy>
  </scstep>
  <structure>
   <crystal>
    <varray name="basis" >
     <v>      13.80799961       0.00000000       0.00000000 </v>
     <v>       0.00000000      12.73600006       0.00000000 </v>
     <v>       0.00000000       0.00000000      16.00000000 </v>
    </varray>
    <i name="volume">   2813.73894219 </i>
    <varray name="rec_basis" >
     <v>       0.07242179       0.00000000       0.00000000 </v>
     <v>       0.00000000       0.07851759       0.00000000 </v>
     <v>       0.00000000       0.00000000       0.06250000 </v>
    </varray>
   </crystal>
   <varray name="positions" >
    <v>       0.62500000       0.05081658       0.62913311 </v>
    <v>       0.37500000       0.05081658       0.62913311 </v>
    <v>       0.87500000       0.05081658       0.62913311 </v>
    <v>       0.12500000       0.55081660       0.62913311 </v>
    <v>       0.62500000       0.55081660       0.62913311 </v>
    <v>       0.37500000       0.55081660       0.62913311 </v>
    <v>       0.87500000       0.55081660       0.62913311 </v>
    <v>       0.12500000       0.37457836       0.40758437 </v>
    <v>       0.62500000       0.37457836       0.40758437 </v>
    <v>       0.37500000       0.37457836       0.40758437 </v>
    <v>       0.87500000       0.37457836       0.40758437 </v>
    <v>       0.12500000       0.87457836       0.40758437 </v>
    <v>       0.62500000       0.87457836       0.40758437 </v>
    <v>       0.37500000       0.87457836       0.40758437 </v>
    <v>       0.87500000       0.87457836       0.40758437 </v>
    <v>       0.00000000       0.12870525       0.37086561 </v>
    <v>       0.50000000       0.12870525       0.37086561 </v>
    <v>       0.25000000       0.12870525       0.37086561 </v>
    <v>       0.75000000       0.12870525       0.37086561 </v>
    <v>       0.00000000       0.62870526       0.37086561 </v>
    <v>       0.50000000       0.62870526       0.37086561 </v>
    <v>       0.25000000       0.62870526       0.37086561 </v>
    <v>       0.75000000       0.62870526       0.37086561 </v>
    <v>       0.00000000       0.30494031       0.59241623 </v>
    <v>       0.50000000       0.30494031       0.59241623 </v>
    <v>       0.25000000       0.30494031       0.59241623 </v>
    <v>       0.75000000       0.30494031       0.59241623 </v>
    <v>       0.00000000       0.80494034       0.59241623 </v>
    <v>       0.50000000       0.80494034       0.59241623 </v>
    <v>       0.25000000       0.80494034       0.59241623 </v>
    <v>       0.75000000       0.80494034       0.59241623 </v>
    <v>       0.12500000       0.18029837       0.49406749 </v>
    <v>       0.62500000       0.18029837       0.49406749 </v>
    <v>       0.37500000       0.18029837       0.49406749 </v>
    <v>       0.87500000       0.18029837       0.49406749 </v>
    <v>       0.12500000       0.68029839       0.49406749 </v>
    <v>       0.62500000       0.68029839       0.49406749 </v>
    <v>       0.37500000       0.68029839       0.49406749 </v>
    <v>       0.87500000       0.68029839       0.49406749 </v>
    <v>       0.00000000       0.99921954       0.50593311 </v>
    <v>       0.50000000       0.99921954       0.50593311 </v>
    <v>       0.25000000       0.99921954       0.50593311 </v>
    <v>       0.75000000       0.99921954       0.50593311 </v>
    <v>       0.00000000       0.49921954       0.50593311 </v>
    <v>       0.50000000       0.49921954       0.50593311 </v>
    <v>       0.25000000       0.49921954       0.50593311 </v>
    <v>       0.75000000       0.49921954       0.50593311 </v>
   </varray>
  </structure>
  <varray name="forces" >
   <v>       0.00001015      -0.01671489      -0.00895242 </v>
   <v>      -0.67094650       0.00876255       0.07701190 </v>
   <v>       0.67092578       0.00875773       0.07702036 </v>
   <v>       0.00000543       0.01030102      -0.03727984 </v>
   <v>      -0.00000384      -0.01752095      -0.00408817 </v>
   <v>      -0.00000560      -0.00373392      -0.00222842 </v>
   <v>       0.00000514      -0.00372087      -0.00222746 </v>
   <v>      -0.00000028       0.11009449      -0.00157429 </v>
   <v>       0.00000106       0.01779148       0.00833401 </v>
   <v>      -0.00056874      -0.02003128       0.02612758 </v>
   <v>       0.00056819      -0.02002871       0.02612065 </v>
   <v>       0.00001142       0.18082589       0.15493743 </v>
   <v>       0.00000404       0.06497130      -0.07379189 </v>
   <v>      -0.10297463       0.25497423       0.06251122 </v>
   <v>       0.10296187       0.25496827       0.06251814 </v>
   <v>      -0.00173549      -0.08859147       0.09826397 </v>
   <v>      -0.05425861      -0.06735353       0.00712740 </v>
   <v>       0.00174394      -0.08859856       0.09828367 </v>
   <v>       0.05425350      -0.06737297       0.00713800 </v>
   <v>       0.04230719       0.02385279       0.00544405 </v>
   <v>      -0.01122408       0.01104388      -0.01878977 </v>
   <v>      -0.04231178       0.02384143       0.00544128 </v>
   <v>       0.01123064       0.01105107      -0.01878713 </v>
   <v>       0.17630474      -0.15411951      -0.01156995 </v>
   <v>       0.00829464      -0.03152219       0.02979719 </v>
   <v>      -0.17630276      -0.15411851      -0.01157126 </v>
   <v>      -0.00829596      -0.03152337       0.02980324 </v>
   <v>       0.23667993       0.20819025      -0.01186205 </v>
   <v>       0.00121776       0.02022259       0.00950736 </v>
   <v>      -0.23667557       0.20820826      -0.01186700 </v>
   <v>      -0.00122036       0.02022659       0.00949573 </v>
   <v>       0.00001654      -0.97983989       0.14969760 </v>
   <v>      -0.00000357       0.05740066       0.04032610 </v>
   <v>       0.06065448      -0.06011022      -0.03747519 </v>
   <v>      -0.06066271      -0.06011552      -0.03747595 </v>
   <v>      -0.00000939      -0.17272489      -0.02487487 </v>
   <v>       0.00000760       0.05575204       0.01913352 </v>
   <v>       0.02908596       0.01971862       0.05697367 </v>
   <v>      -0.02909008       0.01973185       0.05697617 </v>
   <v>       0.24164439       0.30316412      -0.33483979 </v>
   <v>       0.31977371      -0.00792651      -0.09791908 </v>
   <v>      -0.24165015       0.30317138      -0.33482435 </v>
   <v>      -0.31977126      -0.00793922      -0.09792448 </v>
   <v>       0.12507507      -0.03681403       0.02350717 </v>
   <v>      -0.01791533      -0.03489196       0.00745977 </v>
   <v>      -0.12506096      -0.03682433       0.02350587 </v>
   <v>       0.01790447      -0.03488520       0.00746031 </v>
  </varray>
  <varray name="stress" >
   <v>      -4.05613874       0.00001352      -0.00003428 </v>
   <v>       0.00001360      -2.93555791      -0.28296542 </v>
   <v>      -0.00003427      -0.28296522      -0.48878119 </v>
  </varray>
  <energy>
   <i name="e_fr_energy">   -281.89356540 </i>
   <i name="e_wo_entrp">   -281.88500652 </i>
   <i name="e_0_energy">     -0.01711776 </i>
  </energy>
  <time name="totalsc">  238.05  238.59</time>
 </calculation>
 <calculation>
  <scstep>
   <time name="dav">    5.82    5.82</time>
   <time name="total">    6.55    6.55</time>
   <energy>
    <i name="alphaZ">    196.90117899 </i>
    <i name="ewald">  13229.13907538 </i>
    <i name="hartreedc"> -23379.93795026 </i>
    <i name="XCdc">  -1831.83396999 </i>
    <i name="pawpsdc">  20914.18495874 </i>
    <i name="pawaedc"> -18603.71098258 </i>
    <i name="eentropy">     -0.01558882 </i>
    <i name="bandstr">  -1208.37122753 </i>
    <i name="atom">  10401.64288489 </i>
    <i name="e_fr_energy">   -282.00162119 </i>
    <i name="e_wo_entrp">   -281.98603237 </i>
    <i name="e_0_energy">   -281.99382678 </i>
   </energy>
  </scstep>
  <scstep>
   <time name="dav">    6.99    6.99</time>
   <time name="total">    7.71    7.71</time>
   <energy>
    <i name="e_fr_energy">   -282.01961100 </i>
    <i name="e_wo_entrp">   -282.00322582 </i>
    <i name="e_0_energy">   -282.01141841 </i>
   </energy>
  </scstep>
  <scstep>
   <time name="dav">    8.21    8.23</time>
   <time name="total">    8.92    8.95</time>
   <energy>
    <i name="e_fr_energy">   -282.02231967 </i>
    <i name="e_wo_entrp">   -282.00718824 </i>
    <i name="e_0_energy">   -282.01475396 </i>
   </energy>
  </scstep>
  <scstep>
   <time name="dav">    8.39    8.39</time>
   <time name="total">    9.12    9.12</time>
   <energy>
    <i name="e_fr_energy">   -282.01675948 </i>
    <i name="e_wo_entrp">   -282.00057207 </i>
    <i name="e_0_energy">   -282.00866578 </i>
   </energy>
  </scstep>
  <scstep>
   <time name="dav">    7.59    7.59</time>
   <time name="total">    8.34    8.34</time>
   <energy>
    <i name="e_fr_energy">   -282.01684205 </i>
    <i name="e_wo_entrp">   -282.00076633 </i>
    <i name="e_0_energy">   -282.00880419 </i>
   </energy>
  </scstep>
  <scstep>
   <time name="dav">    8.16    8.16</time>
   <time name="total">    8.89    8.90</time>
   <energy>
    <i name="e_fr_energy">   -282.01549898 </i>
    <i name="e_wo_entrp">   -281.99950602 </i>
    <i name="e_0_energy">   -282.00750250 </i>
   </energy>
  </scstep>
  <scstep>
   <time name="dav">    7.16    7.19</time>
   <time name="total">    7.88    7.90</time>
   <energy>
    <i name="e_fr_energy">   -282.01551101 </i>
    <i name="e_wo_entrp">   -281.99951493 </i>
    <i name="e_0_energy">   -282.00751297 </i>
   </energy>
  </scstep>
  <scstep>
   <time name="dav">    7.32    7.32</time>
   <time name="total">    8.04    8.04</time>
   <energy>
    <i name="e_fr_energy">   -282.01547991 </i>
    <i name="e_wo_entrp">   -281.99949419 </i>
    <i name="e_0_energy">   -282.00748705 </i>
   </energy>
  </scstep>
  <scstep>
   <time name="dav">    4.93    4.93</time>
   <time name="total">    5.23    5.23</time>
   <energy>
    <i name="alphaZ">    196.90117899 </i>
    <i name="ewald">  13229.13907538 </i>
    <i name="hartreedc"> -23379.69181229 </i>
    <i name="XCdc">  -1831.82838920 </i>
    <i name="pawpsdc">  20913.84349047 </i>
    <i name="pawaedc"> -18603.41823896 </i>
    <i name="eentropy">     -0.01599495 </i>
    <i name="bandstr">  -1208.58767112 </i>
    <i name="atom">  10401.64288489 </i>
    <i name="e_fr_energy">   -282.01547679 </i>
    <i name="e_wo_entrp">   -281.99948184 </i>
    <i name="e_0_energy">   -282.00747931 </i>
   </energy>
  </scstep>
  <structure>
   <crystal>
    <varray name="basis" >
     <v>      13.80799961       0.00000000       0.00000000 </v>
     <v>       0.00000000      12.73600006       0.00000000 </v>
     <v>       0.00000000       0.00000000      16.00000000 </v>
    </varray>
    <i name="volume">   2813.73894219 </i>
    <varray name="rec_basis" >
     <v>       0.07242179       0.00000000       0.00000000 </v>
     <v>       0.00000000       0.07851759       0.00000000 </v>
     <v>       0.00000000       0.00000000       0.06250000 </v>
    </varray>
   </crystal>
   <varray name="positions" >
    <v>       0.62500004       0.05075327       0.62910611 </v>
    <v>       0.37265583       0.05084978       0.62936531 </v>
    <v>       0.87734409       0.05084976       0.62936533 </v>
    <v>       0.12500002       0.55085562       0.62902070 </v>
    <v>       0.62499999       0.55075023       0.62912078 </v>
    <v>       0.37499998       0.55080245       0.62912639 </v>
    <v>       0.87500002       0.55080250       0.62912639 </v>
    <v>       0.12500000       0.37499538       0.40757962 </v>
    <v>       0.62500000       0.37464575       0.40760950 </v>
    <v>       0.37499801       0.37450248       0.40766315 </v>
    <v>       0.87500199       0.37450249       0.40766313 </v>
    <v>       0.12500004       0.87526331       0.40805153 </v>
    <v>       0.62500001       0.87482446       0.40736187 </v>
    <v>       0.37464023       0.87554417       0.40777285 </v>
    <v>       0.87535973       0.87554415       0.40777287 </v>
    <v>      -0.00000606       0.12836967       0.37116190 </v>
    <v>       0.49981043       0.12845012       0.37088710 </v>
    <v>       0.25000609       0.12836965       0.37116195 </v>
    <v>       0.75018955       0.12845005       0.37088714 </v>
    <v>       0.00014781       0.62879561       0.37088203 </v>
    <v>       0.49996079       0.62874710       0.37080896 </v>
    <v>       0.24985217       0.62879557       0.37088202 </v>
    <v>       0.75003924       0.62874712       0.37080897 </v>
    <v>       0.00061598       0.30435652       0.59238134 </v>
    <v>       0.50002898       0.30482091       0.59250607 </v>
    <v>       0.24938403       0.30435653       0.59238134 </v>
    <v>       0.74997102       0.30482091       0.59250609 </v>
    <v>       0.00082692       0.80572895       0.59238046 </v>
    <v>       0.50000425       0.80501694       0.59244489 </v>
    <v>       0.24917310       0.80572901       0.59238045 </v>
    <v>       0.74999574       0.80501696       0.59244486 </v>
    <v>       0.12500006       0.17658684       0.49451885 </v>
    <v>       0.62499999       0.18051580       0.49418908 </v>
    <v>       0.37521192       0.18007068       0.49395450 </v>
    <v>       0.87478806       0.18007066       0.49395449 </v>
    <v>       0.12499997       0.67964412       0.49399249 </v>
    <v>       0.62500003       0.68050957       0.49412518 </v>
    <v>       0.37510162       0.68037308       0.49423928 </v>
    <v>       0.87489836       0.68037313       0.49423928 </v>
    <v>       0.00084426       0.00036789       0.50492351 </v>
    <v>       0.50111723       0.99918951       0.50563786 </v>
    <v>       0.24915572       0.00036792       0.50492356 </v>
    <v>       0.74888278       0.99918946       0.50563785 </v>
    <v>       0.00043699       0.49908009       0.50600398 </v>
    <v>       0.49993741       0.49908737       0.50595560 </v>
    <v>       0.24956306       0.49908005       0.50600398 </v>
    <v>       0.75006255       0.49908740       0.50595560 </v>
   </varray>
  </structure>
  <varray name="forces" >
   <v>      -0.00000283      -0.00099182       0.05571028 </v>
   <v>      -0.44221030      -0.01779215      -0.09170934 </v>
   <v>       0.44219097      -0.01778864      -0.09170441 </v>
   <v>      -0.00000080       0.00130551       0.04782264 </v>
   <v>       0.00000135      -0.01544776      -0.01032750 </v>
   <v>      -0.01612454      -0.00940845      -0.00039892 </v>
   <v>       0.01612552      -0.00941445      -0.00040230 </v>
   <v>       0.00000174      -0.02894626       0.04866448 </v>
   <v>       0.00000073       0.00589589       0.00218515 </v>
   <v>      -0.00733576      -0.02334168       0.03833158 </v>
   <v>       0.00733535      -0.02334334       0.03833698 </v>
   <v>       0.00000835       0.04266361       0.00621715 </v>
   <v>      -0.00000073       0.04034730      -0.10289267 </v>
   <v>      -0.03766985       0.16236518       0.03934593 </v>
   <v>       0.03766329       0.16235627       0.03932343 </v>
   <v>      -0.00641014       0.01153000      -0.11375192 </v>
   <v>       0.00422512      -0.03313053      -0.03020355 </v>
   <v>       0.00640882       0.01150178      -0.11373857 </v>
   <v>      -0.00422406      -0.03312535      -0.03021006 </v>
   <v>       0.00350812       0.01616293       0.01278043 </v>
   <v>      -0.01643900       0.01901383       0.01837220 </v>
   <v>      -0.00350992       0.01616103       0.01278746 </v>
   <v>       0.01643815       0.01900709       0.01836841 </v>
   <v>       0.13651635      -0.13376541      -0.00494515 </v>
   <v>      -0.01648209      -0.02859793       0.03406974 </v>
   <v>      -0.13651831      -0.13376272      -0.00494000 </v>
   <v>       0.01648541      -0.02859821       0.03406551 </v>
   <v>       0.18325808       0.15294489      -0.03688286 </v>
   <v>      -0.00266948       0.03206345       0.00600634 </v>
   <v>      -0.18326725       0.15295645      -0.03688955 </v>
   <v>       0.00266954       0.03206239       0.00601301 </v>
   <v>       0.00000550      -0.57883317      -0.01344261 </v>
   <v>       0.00000515       0.03456192      -0.03488045 </v>
   <v>       0.06447481      -0.00692746       0.02088173 </v>
   <v>      -0.06447729      -0.00690710       0.02087632 </v>
   <v>       0.00000785      -0.00173483      -0.02408989 </v>
   <v>      -0.00000428       0.00401317      -0.01912102 </v>
   <v>      -0.03510447       0.08217423       0.01561045 </v>
   <v>       0.03511434       0.08216632       0.01561450 </v>
   <v>       0.22639541       0.08356441      -0.00001189 </v>
   <v>       0.04318731       0.02041404       0.10887502 </v>
   <v>      -0.22636644       0.08356799      -0.00005040 </v>
   <v>      -0.04320524       0.02042986       0.10888671 </v>
   <v>       0.06425268      -0.07788391       0.00427299 </v>
   <v>      -0.00977622      -0.00080439       0.00144830 </v>
   <v>      -0.06426258      -0.07787493       0.00427339 </v>
   <v>       0.00978163      -0.00080906       0.00145294 </v>
  </varray>
  <varray name="stress" >
   <v>      -4.27893083      -0.00002371      -0.00015460 </v>
   <v>      -0.00002352      -2.90585009      -0.33814453 </v>
   <v>      -0.00015460      -0.33814435      -0.06165092 </v>
  </varray>
  <energy>
   <i name="e_fr_energy">   -282.01547679 </i>
   <i name="e_wo_entrp">   -282.00747931 </i>
   <i name="e_0_energy">     -0.01599495 </i>
  </energy>
  <time name="totalsc">   84.27   84.39</time>
 </calculation>
 <calculation>
  <scstep>
   <time name="dav">    5.76    5.76</time>
   <time name="total">    6.52    6.53</time>
   <energy>
    <i name="alphaZ">    196.90117899 </i>
    <i name="ewald">  13232.30180793 </i>
    <i name="hartreedc"> -23382.55694869 </i>
    <i name="XCdc">  -1831.82301812 </i>
    <i name="pawpsdc">  20913.67937073 </i>
    <i name="pawaedc"> -18603.25431388 </i>
    <i name="eentropy">     -0.01471255 </i>
    <i name="bandstr">  -1208.91874257 </i>
    <i name="atom">  10401.64288489 </i>
    <i name="e_fr_energy">   -282.04249327 </i>
    <i name="e_wo_entrp">   -282.02778072 </i>
    <i name="e_0_energy">   -282.03513700 </i>
   </energy>
  </scstep>
  <scstep>
   <time name="dav">    6.89    6.89</time>
   <time name="total">    7.60    7.60</time>
   <energy>
    <i name="e_fr_energy">   -282.05874130 </i>
    <i name="e_wo_entrp">   -282.04310625 </i>
    <i name="e_0_energy">   -282.05092377 </i>
   </energy>
  </scstep>
  <scstep>
   <time name="dav">    8.29    8.29</time>
   <time name="total">    9.01    9.01</time>
   <energy>
    <i name="e_fr_energy">   -282.06036715 </i>
    <i name="e_wo_entrp">   -282.04610971 </i>
    <i name="e_0_energy">   -282.05323843 </i>
   </energy>
  </scstep>
  <scstep>
   <time name="dav">    8.79    8.86</time>
   <time name="total">    9.51    9.58</time>
   <energy>
    <i name="e_fr_energy">   -282.05670917 </i>
    <i name="e_wo_entrp">   -282.04125665 </i>
    <i name="e_0_energy">   -282.04898291 </i>
   </energy>
  </scstep>
  <scstep>
   <time name="dav">    7.77    7.77</time>
   <time name="total">    8.49    8.49</time>
   <energy>
    <i name="e_fr_energy">   -282.05669048 </i>
    <i name="e_wo_entrp">   -282.04150371 </i>
    <i name="e_0_energy">   -282.04909709 </i>
   </energy>
  </scstep>
  <scstep>
   <time name="dav">    7.78    7.79</time>
   <time name="total">    8.50    8.51</time>
   <energy>
    <i name="e_fr_energy">   -282.05547268 </i>
    <i name="e_wo_entrp">   -282.04032067 </i>
    <i name="e_0_energy">   -282.04789668 </i>
   </energy>
  </scstep>
  <scstep>
   <time name="dav">    6.89    6.90</time>
   <time name="total">    7.61    7.61</time>
   <energy>
    <i name="e_fr_energy">   -282.05549130 </i>
    <i name="e_wo_entrp">   -282.04034908 </i>
    <i name="e_0_energy">   -282.04792019 </i>
   </energy>
  </scstep>
  <scstep>
   <time name="dav">    7.00    7.02</time>
   <time name="total">    7.71    7.74</time>
   <energy>
    <i name="e_fr_energy">   -282.05547039 </i>
    <i name="e_wo_entrp">   -282.04033722 </i>
    <i name="e_0_energy">   -282.04790380 </i>
   </energy>
  </scstep>
  <scstep>
   <time name="dav">    4.83    4.83</time>
   <time name="total">    5.13    5.13</time>
   <energy>
    <i name="alphaZ">    196.90117899 </i>
    <i name="ewald">  13232.30180793 </i>
    <i name="hartreedc"> -23382.36393870 </i>
    <i name="XCdc">  -1831.81951820 </i>
    <i name="pawpsdc">  20919.79681133 </i>
    <i name="pawaedc"> -18609.42936306 </i>
    <i name="eentropy">     -0.01514349 </i>
    <i name="bandstr">  -1209.07018876 </i>
    <i name="atom">  10401.64288489 </i>
    <i name="e_fr_energy">   -282.05546908 </i>
    <i name="e_wo_entrp">   -282.04032558 </i>
    <i name="e_0_energy">   -282.04789733 </i>
   </energy>
  </scstep>
  <structure>
   <crystal>
    <varray name="basis" >
     <v>      13.80799961       0.00000000       0.00000000 </v>
     <v>       0.00000000      12.73600006       0.00000000 </v>
     <v>       0.00000000       0.00000000      16.00000000 </v>
    </varray>
    <i name="volume">   2813.73894219 </i>
    <varray name="rec_basis" >
     <v>       0.07242179       0.00000000       0.00000000 </v>
     <v>       0.00000000       0.07851759       0.00000000 </v>
     <v>       0.00000000       0.00000000       0.06250000 </v>
    </varray>
   </crystal>
   <varray name="positions" >
    <v>       0.62500007       0.05069237       0.62908015 </v>
    <v>       0.37040100       0.05088170       0.62958866 </v>
    <v>       0.87959885       0.05088167       0.62958871 </v>
    <v>       0.12500004       0.55089315       0.62891258 </v>
    <v>       0.62499997       0.55068639       0.62910892 </v>
    <v>       0.37499996       0.55078885       0.62911992 </v>
    <v>       0.87500004       0.55078894       0.62911993 </v>
    <v>       0.12500000       0.37539652       0.40757506 </v>
    <v>       0.62500001       0.37471057       0.40763367 </v>
    <v>       0.37499610       0.37442950       0.40773892 </v>
    <v>       0.87500389       0.37442951       0.40773888 </v>
    <v>       0.12500008       0.87592215       0.40850089 </v>
    <v>       0.62500003       0.87506119       0.40714786 </v>
    <v>       0.37429416       0.87647318       0.40795415 </v>
    <v>       0.87570575       0.87647314       0.40795419 </v>
    <v>      -0.00001190       0.12804689       0.37144689 </v>
    <v>       0.49962808       0.12820471       0.37090777 </v>
    <v>       0.25001195       0.12804683       0.37144700 </v>
    <v>       0.75037188       0.12820457       0.37090784 </v>
    <v>       0.00028999       0.62888252       0.37089782 </v>
    <v>       0.49992306       0.62878733       0.37075446 </v>
    <v>       0.24970997       0.62888244       0.37089780 </v>
    <v>       0.75007698       0.62878739       0.37075448 </v>
    <v>       0.00120848       0.30379498       0.59234779 </v>
    <v>       0.50005686       0.30470606       0.59259249 </v>
    <v>       0.24879153       0.30379499       0.59234778 </v>
    <v>       0.74994314       0.30470605       0.59259253 </v>
    <v>       0.00162232       0.80648750       0.59234606 </v>
    <v>       0.50000835       0.80509063       0.59247247 </v>
    <v>       0.24837771       0.80648763       0.59234603 </v>
    <v>       0.74999164       0.80509066       0.59247240 </v>
    <v>       0.12500011       0.17301675       0.49495301 </v>
    <v>       0.62499998       0.18072494       0.49430604 </v>
    <v>       0.37541576       0.17985167       0.49384581 </v>
    <v>       0.87458419       0.17985163       0.49384580 </v>
    <v>       0.12499994       0.67901479       0.49392034 </v>
    <v>       0.62500005       0.68071271       0.49418067 </v>
    <v>       0.37519937       0.68044493       0.49440451 </v>
    <v>       0.87480060       0.68044502       0.49440453 </v>
    <v>       0.00165635       0.00147248       0.50395239 </v>
    <v>       0.50219189       0.99916063       0.50535387 </v>
    <v>       0.24834361       0.00147254       0.50395248 </v>
    <v>       0.74780813       0.99916054       0.50535384 </v>
    <v>       0.00085733       0.49894596       0.50607216 </v>
    <v>       0.49987720       0.49896024       0.50597723 </v>
    <v>       0.24914277       0.49894588       0.50607215 </v>
    <v>       0.75012273       0.49896029       0.50597724 </v>
   </varray>
  </structure>
  <varray name="forces" >
   <v>      -0.00000680       0.01305548       0.11707549 </v>
   <v>      -0.23964518      -0.03439404      -0.23239204 </v>
   <v>       0.23963243      -0.03438857      -0.23239118 </v>
   <v>      -0.00000105      -0.00714468       0.13179605 </v>
   <v>      -0.00000038      -0.01286803      -0.01613264 </v>
   <v>      -0.03127837      -0.01456237       0.00144437 </v>
   <v>       0.03127853      -0.01456933       0.00143867 </v>
   <v>       0.00000025      -0.13422293       0.07548959 </v>
   <v>       0.00000130      -0.00512879      -0.00407313 </v>
   <v>      -0.01341243      -0.02667893       0.04923019 </v>
   <v>       0.01340998      -0.02668199       0.04923943 </v>
   <v>       0.00000684      -0.09699033      -0.14510241 </v>
   <v>      -0.00000277       0.01214231      -0.13599198 </v>
   <v>       0.03014543       0.07129309       0.01456022 </v>
   <v>      -0.03014910       0.07128274       0.01452972 </v>
   <v>      -0.01397000       0.12282994      -0.33872449 </v>
   <v>       0.06032329      -0.00028660      -0.06837547 </v>
   <v>       0.01396819       0.12279362      -0.33871831 </v>
   <v>      -0.06032242      -0.00027775      -0.06838865 </v>
   <v>      -0.03389594       0.00762136       0.01920607 </v>
   <v>      -0.02127550       0.02663875       0.05467649 </v>
   <v>       0.03389249       0.00761824       0.01921796 </v>
   <v>       0.02127265       0.02663301       0.05466604 </v>
   <v>       0.09656127      -0.11301750       0.00788291 </v>
   <v>      -0.04127237      -0.02543338       0.03818611 </v>
   <v>      -0.09656693      -0.11301189       0.00789087 </v>
   <v>       0.04127862      -0.02543362       0.03817882 </v>
   <v>       0.13391910       0.10213988      -0.05608206 </v>
   <v>      -0.00550019       0.04365442       0.00289735 </v>
   <v>      -0.13393274       0.10214749      -0.05609049 </v>
   <v>       0.00550094       0.04365283       0.00290853 </v>
   <v>       0.00001083      -0.16880028      -0.16253208 </v>
   <v>       0.00000484       0.01137661      -0.10812393 </v>
   <v>       0.06890825       0.04565109       0.07996458 </v>
   <v>      -0.06890671       0.04567930       0.07995606 </v>
   <v>       0.00001308       0.16108041      -0.02494357 </v>
   <v>      -0.00000858      -0.04619299      -0.05560561 </v>
   <v>      -0.09410312       0.13957991      -0.02439737 </v>
   <v>       0.09411591       0.13956281      -0.02439122 </v>
   <v>       0.20127861      -0.16730022       0.34929443 </v>
   <v>      -0.22156326       0.04284713       0.28615285 </v>
   <v>      -0.20124320      -0.16729480       0.34924385 </v>
   <v>       0.22153701       0.04287233       0.28617099 </v>
   <v>       0.00657059      -0.11595877      -0.01505423 </v>
   <v>      -0.00231979       0.03221850      -0.00437061 </v>
   <v>      -0.00658553      -0.11594134      -0.01505200 </v>
   <v>       0.00233194       0.03220789      -0.00436417 </v>
  </varray>
  <varray name="stress" >
   <v>      -4.38245236      -0.00002016      -0.00021227 </v>
   <v>      -0.00002049      -2.71119372      -0.39976011 </v>
   <v>      -0.00021232      -0.39976044       0.48527468 </v>
  </varray>
  <energy>
   <i name="e_fr_energy">   -282.05546908 </i>
   <i name="e_wo_entrp">   -282.04789733 </i>
   <i name="e_0_energy">     -0.01514349 </i>
  </energy>
  <time name="totalsc">   83.74   83.87</time>
 </calculation>
 <calculation>
  <scstep>
   <time name="dav">    5.67    5.67</time>
   <time name="total">    6.38    6.39</time>
   <energy>
    <i name="alphaZ">    196.90117899 </i>
    <i name="ewald">  13215.59381140 </i>
    <i name="hartreedc"> -23366.43862722 </i>
    <i name="XCdc">  -1831.91763387 </i>
    <i name="pawpsdc">  20919.69937487 </i>
    <i name="pawaedc"> -18609.33206971 </i>
    <i name="eentropy">     -0.01511857 </i>
    <i name="bandstr">  -1208.23482075 </i>
    <i name="atom">  10401.64288489 </i>
    <i name="e_fr_energy">   -282.10101999 </i>
    <i name="e_wo_entrp">   -282.08590142 </i>
    <i name="e_0_energy">   -282.09346070 </i>
   </energy>
  </scstep>
  <scstep>
   <time name="dav">    6.97    6.99</time>
   <time name="total">    7.70    7.72</time>
   <energy>
    <i name="e_fr_energy">   -282.11808063 </i>
    <i name="e_wo_entrp">   -282.10287864 </i>
    <i name="e_0_energy">   -282.11047964 </i>
   </energy>
  </scstep>
  <scstep>
   <time name="dav">    7.94    7.94</time>
   <time name="total">    8.65    8.66</time>
   <energy>
    <i name="e_fr_energy">   -282.11842131 </i>
    <i name="e_wo_entrp">   -282.10358167 </i>
    <i name="e_0_energy">   -282.11100149 </i>
   </energy>
  </scstep>
  <scstep>
   <time name="dav">    7.73    7.73</time>
   <time name="total">    8.45    8.46</time>
   <energy>
    <i name="e_fr_energy">   -282.11696351 </i>
    <i name="e_wo_entrp">   -282.10171182 </i>
    <i name="e_0_energy">   -282.10933767 </i>
   </energy>
  </scstep>
  <scstep>
   <time name="dav">    7.59    7.62</time>
   <time name="total">    8.30    8.33</time>
   <energy>
    <i name="e_fr_energy">   -282.11671627 </i>
    <i name="e_wo_entrp">   -282.10182946 </i>
    <i name="e_0_energy">   -282.10927287 </i>
   </energy>
  </scstep>
  <scstep>
   <time name="dav">    7.64    7.64</time>
   <time name="total">    8.35    8.36</time>
   <energy>
    <i name="e_fr_energy">   -282.11618843 </i>
    <i name="e_wo_entrp">   -282.10103260 </i>
    <i name="e_0_energy">   -282.10861051 </i>
   </energy>
  </scstep>
  <scstep>
   <time name="dav">    7.22    7.22</time>
   <time name="total">    7.95    7.96</time>
   <energy>
    <i name="e_fr_energy">   -282.11614816 </i>
    <i name="e_wo_entrp">   -282.10109033 </i>
    <i name="e_0_energy">   -282.10861924 </i>
   </energy>
  </scstep>
  <scstep>
   <time name="dav">    7.63    7.64</time>
   <time name="total">    8.34    8.35</time>
   <energy>
    <i name="e_fr_energy">   -282.11612211 </i>
    <i name="e_wo_entrp">   -282.10104612 </i>
    <i name="e_0_energy">   -282.10858412 </i>
   </energy>
  </scstep>
  <scstep>
   <time name="dav">    4.73    4.75</time>
   <time name="total">    5.03    5.05</time>
   <energy>
    <i name="alphaZ">    196.90117899 </i>
    <i name="ewald">  13215.59381140 </i>
    <i name="hartreedc"> -23366.36879069 </i>
    <i name="XCdc">  -1831.91499090 </i>
    <i name="pawpsdc">  20893.69140670 </i>
    <i name="pawaedc"> -18583.27960205 </i>
    <i name="eentropy">     -0.01506930 </i>
    <i name="bandstr">  -1208.36695058 </i>
    <i name="atom">  10401.64288489 </i>
    <i name="e_fr_energy">   -282.11612156 </i>
    <i name="e_wo_entrp">   -282.10105226 </i>
    <i name="e_0_energy">   -282.10858691 </i>
   </energy>
  </scstep>
  <structure>
   <crystal>
    <varray name="basis" >
     <v>      13.80799961       0.00000000       0.00000000 </v>
     <v>       0.00000000      12.73600006       0.00000000 </v>
     <v>       0.00000000       0.00000000      16.00000000 </v>
    </varray>
    <i name="volume">   2813.73894219 </i>
    <varray name="rec_basis" >
     <v>       0.07242179       0.00000000       0.00000000 </v>
     <v>       0.00000000       0.07851759       0.00000000 </v>
     <v>       0.00000000       0.00000000       0.06250000 </v>
    </varray>
   </crystal>
   <varray name="positions" >
    <v>       0.62500006       0.05071553       0.62948579 </v>
    <v>       0.36807702       0.05074513       0.62888448 </v>
    <v>       0.88192275       0.05074511       0.62888454 </v>
    <v>       0.12500004       0.55088294       0.62932285 </v>
    <v>       0.62499996       0.55059074       0.62904395 </v>
    <v>       0.37486965       0.55071508       0.62912132 </v>
    <v>       0.87513035       0.55071517       0.62912130 </v>
    <v>       0.12500000       0.37502612       0.40784377 </v>
    <v>       0.62500001       0.37472552       0.40763323 </v>
    <v>       0.37493910       0.37426609       0.40796047 </v>
    <v>       0.87506088       0.37426610       0.40796045 </v>
    <v>       0.12500013       0.87587143       0.40824340 </v>
    <v>       0.62500002       0.87525520       0.40653312 </v>
    <v>       0.37421629       0.87734136       0.40811308 </v>
    <v>       0.87578358       0.87734125       0.40811303 </v>
    <v>      -0.00007352       0.12841189       0.37039665 </v>
    <v>       0.49977219       0.12805914       0.37067410 </v>
    <v>       0.25007359       0.12841166       0.37039682 </v>
    <v>       0.75022777       0.12805900       0.37067414 </v>
    <v>       0.00023237       0.62896804       0.37097615 </v>
    <v>       0.49981226       0.62893131       0.37091900 </v>
    <v>       0.24976757       0.62896792       0.37097617 </v>
    <v>       0.75018779       0.62893135       0.37091898 </v>
    <v>       0.00195909       0.30295439       0.59235640 </v>
    <v>       0.49990131       0.30452366       0.59278058 </v>
    <v>       0.24804091       0.30295443       0.59235642 </v>
    <v>       0.75009871       0.30452365       0.59278060 </v>
    <v>       0.00264785       0.80739478       0.59212420 </v>
    <v>       0.49998784       0.80533111       0.59249909 </v>
    <v>       0.24735214       0.80739499       0.59212414 </v>
    <v>       0.75001214       0.80533115       0.59249905 </v>
    <v>       0.12500019       0.17015546       0.49462392 </v>
    <v>       0.62499999       0.18089928       0.49398607 </v>
    <v>       0.37582266       0.17992910       0.49406940 </v>
    <v>       0.87417727       0.17992917       0.49406936 </v>
    <v>       0.12499997       0.67937234       0.49378825 </v>
    <v>       0.62500003       0.68062350       0.49401338 </v>
    <v>       0.37486481       0.68111759       0.49441394 </v>
    <v>       0.87513521       0.68111764       0.49441399 </v>
    <v>       0.00297230       0.00136625       0.50463724 </v>
    <v>       0.50190066       0.99933718       0.50621569 </v>
    <v>       0.24702780       0.00136635       0.50463718 </v>
    <v>       0.74809925       0.99933717       0.50621572 </v>
    <v>       0.00113182       0.49834336       0.50605812 </v>
    <v>       0.49983214       0.49903102       0.50597424 </v>
    <v>       0.24886824       0.49834334       0.50605812 </v>
    <v>       0.75016782       0.49903103       0.50597427 </v>
   </varray>
  </structure>
  <varray name="forces" >
   <v>      -0.00001489       0.07727422       0.12093593 </v>
   <v>      -0.05182017      -0.00997912      -0.00527878 </v>
   <v>       0.05182456      -0.00996656      -0.00528122 </v>
   <v>      -0.00000340       0.00766917       0.02163515 </v>
   <v>       0.00000193       0.00091308      -0.01733183 </v>
   <v>      -0.04061152       0.00272596      -0.04156462 </v>
   <v>       0.04061446       0.00271606      -0.04156056 </v>
   <v>       0.00000215      -0.15509323       0.04555380 </v>
   <v>      -0.00000071       0.01456585      -0.00667094 </v>
   <v>      -0.00021408      -0.01581955       0.04389336 </v>
   <v>       0.00021368      -0.01581746       0.04389736 </v>
   <v>       0.00000278      -0.15321692      -0.15538555 </v>
   <v>      -0.00000430       0.04885984       0.01154893 </v>
   <v>       0.03161967       0.01830938       0.05305444 </v>
   <v>      -0.03161625       0.01831530       0.05305094 </v>
   <v>      -0.07130900       0.03771372      -0.07651744 </v>
   <v>       0.03426439      -0.03287290       0.03626666 </v>
   <v>       0.07131368       0.03769950      -0.07654327 </v>
   <v>      -0.03426316      -0.03286359       0.03625949 </v>
   <v>      -0.02160010      -0.01463925       0.01970810 </v>
   <v>      -0.03992582       0.02849166       0.03769108 </v>
   <v>       0.02160424      -0.01463611       0.01970762 </v>
   <v>       0.03992273       0.02848560       0.03769550 </v>
   <v>       0.07327975      -0.08462737       0.01293078 </v>
   <v>      -0.02567984      -0.00832609       0.01628915 </v>
   <v>      -0.07328129      -0.08462652       0.01293573 </v>
   <v>       0.02568088      -0.00832535       0.01628557 </v>
   <v>       0.08042890       0.00647766       0.00457822 </v>
   <v>      -0.01893661       0.00788367       0.00858210 </v>
   <v>      -0.08043364       0.00648292       0.00456750 </v>
   <v>       0.01893354       0.00788020       0.00859275 </v>
   <v>      -0.00000486       0.06016191      -0.19504393 </v>
   <v>       0.00000104      -0.05792038       0.02717649 </v>
   <v>      -0.02602443       0.00159501      -0.05967853 </v>
   <v>       0.02603256       0.00158801      -0.05967502 </v>
   <v>       0.00000851       0.03712762       0.02040032 </v>
   <v>      -0.00000201       0.01398336      -0.01318573 </v>
   <v>      -0.07570942       0.07204978       0.02912152 </v>
   <v>       0.07571162       0.07204180       0.02911203 </v>
   <v>       0.24278297      -0.04856494      -0.07782846 </v>
   <v>      -0.18866687       0.07548285       0.03382970 </v>
   <v>      -0.24277586      -0.04857828      -0.07782241 </v>
   <v>       0.18865471       0.07549045       0.03381980 </v>
   <v>       0.01827968      -0.02699018       0.01881215 </v>
   <v>      -0.01882141       0.04393108       0.01631098 </v>
   <v>      -0.01828518      -0.02698437       0.01881685 </v>
   <v>       0.01882638       0.04393251       0.01630829 </v>
  </varray>
  <varray name="stress" >
   <v>      -4.52281704      -0.00001431      -0.00017668 </v>
   <v>      -0.00001420      -3.07694189       0.10654303 </v>
   <v>      -0.00017658       0.10654276      -0.12293040 </v>
  </varray>
  <energy>
   <i name="e_fr_energy">   -282.11612156 </i>
   <i name="e_wo_entrp">   -282.10858691 </i>
   <i name="e_0_energy">     -0.01506930 </i>
  </energy>
  <time name="totalsc">   82.71   82.83</time>
 </calculation>
 <calculation>
  <scstep>
   <time name="dav">    5.77    5.77</time>
   <time name="total">    6.49    6.49</time>
   <energy>
    <i name="alphaZ">    196.90117899 </i>
    <i name="ewald">  13208.83787362 </i>
    <i name="hartreedc"> -23359.90328010 </i>
    <i name="XCdc">  -1831.95378571 </i>
    <i name="pawpsdc">  20893.61154132 </i>
    <i name="pawaedc"> -18583.19968315 </i>
    <i name="eentropy">     -0.01530228 </i>
    <i name="bandstr">  -1208.04061285 </i>
    <i name="atom">  10401.64288489 </i>
    <i name="e_fr_energy">   -282.11918528 </i>
    <i name="e_wo_entrp">   -282.10388300 </i>
    <i name="e_0_energy">   -282.11153414 </i>
   </energy>
  </scstep>
  <scstep>
   <time name="dav">    7.05    7.05</time>
   <time name="total">    7.76    7.76</time>
   <energy>
    <i name="e_fr_energy">   -282.12210482 </i>
    <i name="e_wo_entrp">   -282.10675258 </i>
    <i name="e_0_energy">   -282.11442870 </i>
   </energy>
  </scstep>
  <scstep>
   <time name="dav">    7.86    7.89</time>
   <time name="total">    8.57    8.60</time>
   <energy>
    <i name="e_fr_energy">   -282.12215929 </i>
    <i name="e_wo_entrp">   -282.10697799 </i>
    <i name="e_0_energy">   -282.11456864 </i>
   </energy>
  </scstep>
  <scstep>
   <time name="dav">    8.00    8.00</time>
   <time name="total">    8.71    8.71</time>
   <energy>
    <i name="e_fr_energy">   -282.12190625 </i>
    <i name="e_wo_entrp">   -282.10654495 </i>
    <i name="e_0_energy">   -282.11422560 </i>
   </energy>
  </scstep>
  <scstep>
   <time name="dav">    7.73    7.73</time>
   <time name="total">    8.49    8.49</time>
   <energy>
    <i name="e_fr_energy">   -282.12186244 </i>
    <i name="e_wo_entrp">   -282.10664514 </i>
    <i name="e_0_energy">   -282.11425379 </i>
   </energy>
  </scstep>
  <scstep>
   <time name="dav">    7.58    7.60</time>
   <time name="total">    8.29    8.32</time>
   <energy>
    <i name="e_fr_energy">   -282.12177186 </i>
    <i name="e_wo_entrp">   -282.10645717 </i>
    <i name="e_0_energy">   -282.11411451 </i>
   </energy>
  </scstep>
  <scstep>
   <time name="dav">    6.77    6.77</time>
   <time name="total">    7.49    7.49</time>
   <energy>
    <i name="e_fr_energy">   -282.12176408 </i>
    <i name="e_wo_entrp">   -282.10648393 </i>
    <i name="e_0_energy">   -282.11412401 </i>
   </energy>
  </scstep>
  <scstep>
   <time name="dav">    4.83    4.83</time>
   <time name="total">    5.12    5.13</time>
   <energy>
    <i name="alphaZ">    196.90117899 </i>
    <i name="ewald">  13208.83787362 </i>
    <i name="hartreedc"> -23359.90135257 </i>
    <i name="XCdc">  -1831.95371755 </i>
    <i name="pawpsdc">  20884.09432646 </i>
    <i name="pawaedc"> -18573.66597556 </i>
    <i name="eentropy">     -0.01528423 </i>
    <i name="bandstr">  -1208.06169459 </i>
    <i name="atom">  10401.64288489 </i>
    <i name="e_fr_energy">   -282.12176055 </i>
    <i name="e_wo_entrp">   -282.10647632 </i>
    <i name="e_0_energy">   -282.11411843 </i>
   </energy>
  </scstep>
  <structure>
   <crystal>
    <varray name="basis" >
     <v>      13.80799961       0.00000000       0.00000000 </v>
     <v>       0.00000000      12.73600006       0.00000000 </v>
     <v>       0.00000000       0.00000000      16.00000000 </v>
    </varray>
    <i name="volume">   2813.73894219 </i>
    <varray name="rec_basis" >
     <v>       0.07242179       0.00000000       0.00000000 </v>
     <v>       0.00000000       0.07851759       0.00000000 </v>
     <v>       0.00000000       0.00000000       0.06250000 </v>
    </varray>
   </crystal>
   <varray name="positions" >
    <v>       0.62500006       0.05072511       0.62965364 </v>
    <v>       0.36711541       0.05068862       0.62859310 </v>
    <v>       0.88288432       0.05068860       0.62859317 </v>
    <v>       0.12500005       0.55087872       0.62949261 </v>
    <v>       0.62499996       0.55055116       0.62901707 </v>
    <v>       0.37481573       0.55068455       0.62912189 </v>
    <v>       0.87518427       0.55068464       0.62912187 </v>
    <v>       0.12500000       0.37487285       0.40795496 </v>
    <v>       0.62500002       0.37473170       0.40763306 </v>
    <v>       0.37491552       0.37419848       0.40805214 </v>
    <v>       0.87508446       0.37419848       0.40805213 </v>
    <v>       0.12500015       0.87585044       0.40813685 </v>
    <v>       0.62500002       0.87533548       0.40627875 </v>
    <v>       0.37418407       0.87770059       0.40817885 </v>
    <v>       0.87581578       0.87770046       0.40817875 </v>
    <v>      -0.00009902       0.12856292       0.36996208 </v>
    <v>       0.49983181       0.12799891       0.37057742 </v>
    <v>       0.25009909       0.12856261       0.36996228 </v>
    <v>       0.75016814       0.12799876       0.37057744 </v>
    <v>       0.00020853       0.62900343       0.37100856 </v>
    <v>       0.49976641       0.62899088       0.37098708 </v>
    <v>       0.24979140       0.62900329       0.37100860 </v>
    <v>       0.75023364       0.62899092       0.37098705 </v>
    <v>       0.00226967       0.30260658       0.59235996 </v>
    <v>       0.49983694       0.30444819       0.59285841 </v>
    <v>       0.24773032       0.30260662       0.59235999 </v>
    <v>       0.75016308       0.30444818       0.59285843 </v>
    <v>       0.00307218       0.80777019       0.59203241 </v>
    <v>       0.49997935       0.80543062       0.59251011 </v>
    <v>       0.24692778       0.80777043       0.59203232 </v>
    <v>       0.75002063       0.80543065       0.59251007 </v>
    <v>       0.12500022       0.16897153       0.49448776 </v>
    <v>       0.62499999       0.18097142       0.49385367 </v>
    <v>       0.37599103       0.17996113       0.49416192 </v>
    <v>       0.87400890       0.17996126       0.49416187 </v>
    <v>       0.12499999       0.67952028       0.49373360 </v>
    <v>       0.62500002       0.68058658       0.49394416 </v>
    <v>       0.37472637       0.68139592       0.49441785 </v>
    <v>       0.87527366       0.68139595       0.49441790 </v>
    <v>       0.00351681       0.00132230       0.50492062 </v>
    <v>       0.50178016       0.99941023       0.50657229 </v>
    <v>       0.24648334       0.00132241       0.50492049 </v>
    <v>       0.74821971       0.99941025       0.50657234 </v>
    <v>       0.00124540       0.49809402       0.50605231 </v>
    <v>       0.49981349       0.49906030       0.50597300 </v>
    <v>       0.24875465       0.49809402       0.50605231 </v>
    <v>       0.75018647       0.49906031       0.50597304 </v>
   </varray>
  </structure>
  <varray name="forces" >
   <v>      -0.00001729       0.10343432       0.12346123 </v>
   <v>       0.03036243       0.00194062       0.09405401 </v>
   <v>      -0.03032755       0.00194456       0.09402196 </v>
   <v>      -0.00000379       0.01320114      -0.02362021 </v>
   <v>       0.00000250       0.00681855      -0.01791577 </v>
   <v>      -0.04433206       0.00984690      -0.05916357 </v>
   <v>       0.04433572       0.00984011      -0.05915580 </v>
   <v>       0.00000417      -0.16342379       0.03118529 </v>
   <v>       0.00000010       0.02295891      -0.00843859 </v>
   <v>       0.00498421      -0.01140860       0.04087534 </v>
   <v>      -0.00498423      -0.01140332       0.04087667 </v>
   <v>      -0.00001800      -0.17718201      -0.16015444 </v>
   <v>      -0.00000684       0.06177386       0.07053671 </v>
   <v>       0.03300592      -0.00453998       0.06809449 </v>
   <v>      -0.03298016      -0.00451888       0.06811947 </v>
   <v>      -0.09323420       0.00553388       0.02519046 </v>
   <v>       0.02374864      -0.04598196       0.07796711 </v>
   <v>       0.09324703       0.00557605       0.02510501 </v>
   <v>      -0.02374644      -0.04597671       0.07796000 </v>
   <v>      -0.01630167      -0.02384402       0.01998680 </v>
   <v>      -0.04769493       0.02939621       0.03080137 </v>
   <v>       0.01630902      -0.02383593       0.01997581 </v>
   <v>       0.04769321       0.02939107       0.03081346 </v>
   <v>       0.06448430      -0.07306789       0.01558765 </v>
   <v>      -0.01907841      -0.00105423       0.00798859 </v>
   <v>      -0.06447980      -0.07307495       0.01558782 </v>
   <v>       0.01907425      -0.00105270       0.00798544 </v>
   <v>       0.05803630      -0.03464427       0.03176093 </v>
   <v>      -0.02423428      -0.00713216       0.01131993 </v>
   <v>      -0.05803011      -0.03466440       0.03175843 </v>
   <v>       0.02422982      -0.00713603       0.01132629 </v>
   <v>      -0.00003327       0.16118606      -0.20468962 </v>
   <v>      -0.00000381      -0.08514884       0.08264019 </v>
   <v>      -0.06154846      -0.01558025      -0.11579161 </v>
   <v>       0.06156588      -0.01562488      -0.11577849 </v>
   <v>       0.00000766      -0.01395782       0.03784692 </v>
   <v>      -0.00000141       0.03777698       0.00407574 </v>
   <v>      -0.06908956       0.04400910       0.05031652 </v>
   <v>       0.06907592       0.04400271       0.05029641 </v>
   <v>       0.26263456      -0.00671047      -0.25632558 </v>
   <v>      -0.17698684       0.08990996      -0.06829679 </v>
   <v>      -0.26267007      -0.00675706      -0.25626556 </v>
   <v>       0.17700623       0.08990142      -0.06832369 </v>
   <v>       0.02387865       0.01021622       0.03318864 </v>
   <v>      -0.02370516       0.04941913       0.02501589 </v>
   <v>      -0.02387983       0.01021617       0.03319315 </v>
   <v>       0.02370163       0.04942725       0.02500602 </v>
  </varray>
  <varray name="stress" >
   <v>      -4.56222900      -0.00000067       0.00005789 </v>
   <v>      -0.00000039      -3.19200724       0.31229149 </v>
   <v>       0.00005768       0.31229188      -0.34572240 </v>
  </varray>
  <energy>
   <i name="e_fr_energy">   -282.12176055 </i>
   <i name="e_wo_entrp">   -282.11411843 </i>
   <i name="e_0_energy">     -0.01528423 </i>
  </energy>
  <time name="totalsc">   74.46   74.55</time>
 </calculation>
 <calculation>
  <scstep>
   <time name="dav">    5.74    5.76</time>
   <time name="total">    6.45    6.48</time>
   <energy>
    <i name="alphaZ">    196.90117899 </i>
    <i name="ewald">  13206.46189986 </i>
    <i name="hartreedc"> -23357.60327982 </i>
    <i name="XCdc">  -1831.96614011 </i>
    <i name="pawpsdc">  20884.13274517 </i>
    <i name="pawaedc"> -18573.70440057 </i>
    <i name="eentropy">     -0.01653526 </i>
    <i name="bandstr">  -1207.99880271 </i>
    <i name="atom">  10401.64288489 </i>
    <i name="e_fr_energy">   -282.15044958 </i>
    <i name="e_wo_entrp">   -282.13391432 </i>
    <i name="e_0_energy">   -282.14218195 </i>
   </energy>
  </scstep>
  <scstep>
   <time name="dav">    7.01    7.02</time>
   <time name="total">    7.72    7.73</time>
   <energy>
    <i name="e_fr_energy">   -282.16062456 </i>
    <i name="e_wo_entrp">   -282.14444442 </i>
    <i name="e_0_energy">   -282.15253449 </i>
   </energy>
  </scstep>
  <scstep>
   <time name="dav">    7.65    7.65</time>
   <time name="total">    8.36    8.37</time>
   <energy>
    <i name="e_fr_energy">   -282.16046655 </i>
    <i name="e_wo_entrp">   -282.14394196 </i>
    <i name="e_0_energy">   -282.15220425 </i>
   </energy>
  </scstep>
  <scstep>
   <time name="dav">    8.09    8.09</time>
[...]
       <r>    0.8058    0.0000 </r>
       <r>    0.8620    0.0000 </r>
       <r>    1.0449    0.0000 </r>
       <r>    1.1415    0.0000 </r>
       <r>    1.2010    0.0000 </r>
       <r>    1.2687    0.0000 </r>
       <r>    1.3346    0.0000 </r>
       <r>    1.3715    0.0000 </r>
       <r>    1.3972    0.0000 </r>
       <r>    1.4241    0.0000 </r>
       <r>    1.4810    0.0000 </r>
       <r>    1.5217    0.0000 </r>
       <r>    1.6588    0.0000 </r>
       <r>    1.7109    0.0000 </r>
       <r>    1.7403    0.0000 </r>
       <r>    1.7692    0.0000 </r>
       <r>    1.7920    0.0000 </r>
       <r>    1.8201    0.0000 </r>
       <r>    1.8654    0.0000 </r>
       <r>    1.9035    0.0000 </r>
       <r>    1.9493    0.0000 </r>
       <r>    1.9871    0.0000 </r>
       <r>    2.0043    0.0000 </r>
       <r>    2.0593    0.0000 </r>
       <r>    2.1137    0.0000 </r>
       <r>    2.1345    0.0000 </r>
       <r>    2.1689    0.0000 </r>
       <r>    2.2441    0.0000 </r>
       <r>    2.2777    0.0000 </r>
       <r>    2.2931    0.0000 </r>
      </set>
     </set>
    </set>
   </array>
  </eigenvalues>
  <separator name="orbital magnetization" >
   <v name="MAGDIPOLOUT">      0.00000000      0.00000000      0.00000000</v>
  </separator>
  <dos>
   <i name="efermi">      0.31527588 </i>
   <total>
    <array>
     <dimension dim="1">gridpoints</dimension>
     <dimension dim="2">spin</dimension>
     <field>energy</field>
     <field>total</field>
     <field>integrated</field>
     <set>
      <set comment="spin 1">
       <r>   -13.2265     0.0000     0.0000 </r>
       <r>   -13.1721     0.0000     0.0000 </r>
       <r>   -13.1176     0.0000     0.0000 </r>
       <r>   -13.0632     0.0000     0.0000 </r>
       <r>   -13.0088     0.0000     0.0000 </r>
       <r>   -12.9544     0.0000     0.0000 </r>
       <r>   -12.8999     0.0000     0.0000 </r>
       <r>   -12.8455     0.0000     0.0000 </r>
       <r>   -12.7911     0.0000     0.0000 </r>
       <r>   -12.7367     0.0000     0.0000 </r>
       <r>   -12.6822     0.0000     0.0000 </r>
       <r>   -12.6278     0.0002     0.0000 </r>
       <r>   -12.5734     0.0539     0.0029 </r>
       <r>   -12.5190     1.4564     0.0822 </r>
       <r>   -12.4645     5.6562     0.3900 </r>
       <r>   -12.4101     9.0078     0.8803 </r>
       <r>   -12.3557    10.7499     1.4653 </r>
       <r>   -12.3013     7.1049     1.8520 </r>
       <r>   -12.2469     7.2587     2.2470 </r>
       <r>   -12.1924    12.2583     2.9142 </r>
       <r>   -12.1380    10.7953     3.5017 </r>
       <r>   -12.0836     7.4236     3.9057 </r>
       <r>   -12.0292     5.2538     4.1917 </r>
       <r>   -11.9747    13.3272     4.9170 </r>
       <r>   -11.9203    16.6356     5.8224 </r>
       <r>   -11.8659    10.5564     6.3969 </r>
       <r>   -11.8115     2.8055     6.5496 </r>
       <r>   -11.7570     7.8184     6.9751 </r>
       <r>   -11.7026    13.2070     7.6938 </r>
       <r>   -11.6482    12.9061     8.3962 </r>
       <r>   -11.5938    19.0510     9.4331 </r>
       <r>   -11.5393    24.1688    10.7484 </r>
       <r>   -11.4849    25.5243    12.1375 </r>
       <r>   -11.4305    23.9063    13.4386 </r>
       <r>   -11.3761    21.5379    14.6108 </r>
       <r>   -11.3216    18.5751    15.6217 </r>
       <r>   -11.2672    32.3621    17.3830 </r>
       <r>   -11.2128    34.7827    19.2760 </r>
       <r>   -11.1584    25.2698    20.6513 </r>
       <r>   -11.1040    24.0322    21.9592 </r>
       <r>   -11.0495    25.0731    23.3238 </r>
       <r>   -10.9951    26.7859    24.7815 </r>
       <r>   -10.9407    27.8307    26.2962 </r>
       <r>   -10.8863    29.9398    27.9256 </r>
       <r>   -10.8318    40.0596    30.1058 </r>
       <r>   -10.7774    38.2813    32.1892 </r>
       <r>   -10.7230    41.3133    34.4377 </r>
       <r>   -10.6686    46.8282    36.9862 </r>
       <r>   -10.6141    56.2342    40.0467 </r>
       <r>   -10.5597    57.6182    43.1825 </r>
       <r>   -10.5053    48.9428    45.8462 </r>
       <r>   -10.4509    33.1324    47.6493 </r>
       <r>   -10.3964    28.7309    49.2130 </r>
       <r>   -10.3420    28.8218    50.7816 </r>
       <r>   -10.2876    36.0499    52.7436 </r>
       <r>   -10.2332    32.4370    54.5089 </r>
       <r>   -10.1787    22.0754    55.7103 </r>
       <r>   -10.1243    34.4992    57.5879 </r>
       <r>   -10.0699    41.0486    59.8219 </r>
       <r>   -10.0155    28.0231    61.3470 </r>
       <r>    -9.9611    10.6991    61.9293 </r>
       <r>    -9.9066     1.2738    61.9987 </r>
       <r>    -9.8522     0.0247    62.0000 </r>
       <r>    -9.7978     0.0001    62.0000 </r>
       <r>    -9.7434     0.0000    62.0000 </r>
       <r>    -9.6889     0.0000    62.0000 </r>
       <r>    -9.6345     0.0000    62.0000 </r>
       <r>    -9.5801     0.0000    62.0000 </r>
       <r>    -9.5257     0.0000    62.0000 </r>
       <r>    -9.4712     0.0000    62.0000 </r>
       <r>    -9.4168     0.0000    62.0000 </r>
       <r>    -9.3624     0.0000    62.0000 </r>
       <r>    -9.3080     0.0000    62.0000 </r>
       <r>    -9.2535     0.0000    62.0000 </r>
       <r>    -9.1991     0.0000    62.0000 </r>
       <r>    -9.1447     0.0000    62.0000 </r>
       <r>    -9.0903     0.0000    62.0000 </r>
       <r>    -9.0358     0.0000    62.0000 </r>
       <r>    -8.9814     0.0000    62.0000 </r>
       <r>    -8.9270     0.0000    62.0000 </r>
       <r>    -8.8726     0.0000    62.0000 </r>
       <r>    -8.8182     0.0000    62.0000 </r>
       <r>    -8.7637     0.0000    62.0000 </r>
       <r>    -8.7093     0.0000    62.0000 </r>
       <r>    -8.6549     0.0000    62.0000 </r>
       <r>    -8.6005     0.0000    62.0000 </r>
       <r>    -8.5460     0.0000    62.0000 </r>
       <r>    -8.4916     0.0000    62.0000 </r>
       <r>    -8.4372     0.0000    62.0000 </r>
       <r>    -8.3828     0.0000    62.0000 </r>
       <r>    -8.3283     0.0000    62.0000 </r>
       <r>    -8.2739     0.0000    62.0000 </r>
       <r>    -8.2195     0.0000    62.0000 </r>
       <r>    -8.1651     0.0000    62.0000 </r>
       <r>    -8.1106     0.0000    62.0000 </r>
       <r>    -8.0562     0.0000    62.0000 </r>
       <r>    -8.0018     0.0000    62.0000 </r>
       <r>    -7.9474     0.0000    62.0000 </r>
       <r>    -7.8929     0.0000    62.0000 </r>
       <r>    -7.8385     0.0000    62.0000 </r>
       <r>    -7.7841     0.0000    62.0000 </r>
       <r>    -7.7297     0.0000    62.0000 </r>
       <r>    -7.6753     0.0000    62.0000 </r>
       <r>    -7.6208     0.0000    62.0000 </r>
       <r>    -7.5664     0.0000    62.0000 </r>
       <r>    -7.5120     0.0000    62.0000 </r>
       <r>    -7.4576     0.0000    62.0000 </r>
       <r>    -7.4031     0.0000    62.0000 </r>
       <r>    -7.3487     0.0000    62.0000 </r>
       <r>    -7.2943     0.0000    62.0000 </r>
       <r>    -7.2399     0.0000    62.0000 </r>
       <r>    -7.1854     0.0000    62.0000 </r>
       <r>    -7.1310     0.0000    62.0000 </r>
       <r>    -7.0766     0.0000    62.0000 </r>
       <r>    -7.0222     0.0000    62.0000 </r>
       <r>    -6.9677     0.0000    62.0000 </r>
       <r>    -6.9133     0.0000    62.0000 </r>
       <r>    -6.8589     0.0000    62.0000 </r>
       <r>    -6.8045     0.0000    62.0000 </r>
       <r>    -6.7501     0.0000    62.0000 </r>
       <r>    -6.6956     0.0000    62.0000 </r>
       <r>    -6.6412     0.0000    62.0000 </r>
       <r>    -6.5868     0.0000    62.0000 </r>
       <r>    -6.5324     0.0000    62.0000 </r>
       <r>    -6.4779     0.0000    62.0000 </r>
       <r>    -6.4235     0.0000    62.0000 </r>
       <r>    -6.3691     0.0000    62.0000 </r>
       <r>    -6.3147     0.0000    62.0000 </r>
       <r>    -6.2602     0.0000    62.0000 </r>
       <r>    -6.2058     0.0000    62.0000 </r>
       <r>    -6.1514     0.0000    62.0000 </r>
       <r>    -6.0970     0.0000    62.0000 </r>
       <r>    -6.0425     0.0000    62.0000 </r>
       <r>    -5.9881     0.0000    62.0000 </r>
       <r>    -5.9337     0.0000    62.0000 </r>
       <r>    -5.8793     0.0000    62.0000 </r>
       <r>    -5.8248     0.0000    62.0000 </r>
       <r>    -5.7704     0.0000    62.0000 </r>
       <r>    -5.7160     0.0000    62.0000 </r>
       <r>    -5.6616     0.0000    62.0000 </r>
       <r>    -5.6072     0.0000    62.0000 </r>
       <r>    -5.5527     0.0003    62.0000 </r>
       <r>    -5.4983     0.0679    62.0037 </r>
       <r>    -5.4439     1.6305    62.0925 </r>
       <r>    -5.3895     5.1115    62.3706 </r>
       <r>    -5.3350     3.0558    62.5369 </r>
       <r>    -5.2806     7.5630    62.9486 </r>
       <r>    -5.2262    17.8744    63.9213 </r>
       <r>    -5.1718    17.1723    64.8559 </r>
       <r>    -5.1173    18.1013    65.8411 </r>
       <r>    -5.0629    13.0610    66.5519 </r>
       <r>    -5.0085    13.0687    67.2631 </r>
       <r>    -4.9541    18.3285    68.2607 </r>
       <r>    -4.8996    15.4669    69.1024 </r>
       <r>    -4.8452    18.8634    70.1290 </r>
       <r>    -4.7908    19.7706    71.2050 </r>
       <r>    -4.7364    25.5782    72.5971 </r>
       <r>    -4.6819    24.4145    73.9258 </r>
       <r>    -4.6275    22.7085    75.1617 </r>
       <r>    -4.5731    25.2494    76.5359 </r>
       <r>    -4.5187    34.0234    78.3875 </r>
       <r>    -4.4643    41.9612    80.6712 </r>
       <r>    -4.4098    51.7835    83.4895 </r>
       <r>    -4.3554    53.6551    86.4096 </r>
       <r>    -4.3010    63.0951    89.8435 </r>
       <r>    -4.2466    60.2518    93.1226 </r>
       <r>    -4.1921    51.9249    95.9485 </r>
       <r>    -4.1377    38.7284    98.0563 </r>
       <r>    -4.0833    37.3518   100.0891 </r>
       <r>    -4.0289    40.3543   102.2853 </r>
       <r>    -3.9744    40.7069   104.5008 </r>
       <r>    -3.9200    35.0759   106.4097 </r>
       <r>    -3.8656    37.4586   108.4484 </r>
       <r>    -3.8112    25.0635   109.8124 </r>
       <r>    -3.7567    29.7535   111.4317 </r>
       <r>    -3.7023    33.8671   113.2749 </r>
       <r>    -3.6479    28.3695   114.8189 </r>
       <r>    -3.5935    28.9222   116.3929 </r>
       <r>    -3.5390    32.4131   118.1570 </r>
       <r>    -3.4846    38.1520   120.2333 </r>
       <r>    -3.4302    47.4917   122.8180 </r>
       <r>    -3.3758    51.2557   125.6076 </r>
       <r>    -3.3214    39.4812   127.7563 </r>
       <r>    -3.2669    28.3261   129.2979 </r>
       <r>    -3.2125    33.8540   131.1403 </r>
       <r>    -3.1581    34.8975   133.0396 </r>
       <r>    -3.1037    43.3553   135.3991 </r>
       <r>    -3.0492    49.7490   138.1067 </r>
       <r>    -2.9948    40.4075   140.3058 </r>
       <r>    -2.9404    35.1473   142.2187 </r>
       <r>    -2.8860    30.8964   143.9002 </r>
       <r>    -2.8315    43.3732   146.2607 </r>
       <r>    -2.7771    52.2533   149.1045 </r>
       <r>    -2.7227    49.3280   151.7891 </r>
       <r>    -2.6683    53.9966   154.7278 </r>
       <r>    -2.6138    54.6487   157.7020 </r>
       <r>    -2.5594    53.7503   160.6273 </r>
       <r>    -2.5050    52.0784   163.4616 </r>
       <r>    -2.4506    46.9670   166.0177 </r>
       <r>    -2.3962    43.9825   168.4114 </r>
       <r>    -2.3417    46.5368   170.9441 </r>
       <r>    -2.2873    49.0572   173.6140 </r>
       <r>    -2.2329    40.6123   175.8243 </r>
       <r>    -2.1785    36.5117   177.8114 </r>
       <r>    -2.1240    44.9089   180.2555 </r>
       <r>    -2.0696    45.1288   182.7116 </r>
       <r>    -2.0152    49.5159   185.4064 </r>
       <r>    -1.9608    44.5187   187.8293 </r>
       <r>    -1.9063    39.1096   189.9578 </r>
       <r>    -1.8519    45.5473   192.4366 </r>
       <r>    -1.7975    47.0034   194.9947 </r>
       <r>    -1.7431    51.2603   197.7845 </r>
       <r>    -1.6886    52.0203   200.6156 </r>
       <r>    -1.6342    45.6905   203.1023 </r>
       <r>    -1.5798    44.2657   205.5114 </r>
       <r>    -1.5254    56.5023   208.5865 </r>
       <r>    -1.4709    63.1865   212.0253 </r>
       <r>    -1.4165    67.9884   215.7255 </r>
       <r>    -1.3621    67.2615   219.3861 </r>
       <r>    -1.3077    46.3979   221.9113 </r>
       <r>    -1.2533    48.3943   224.5451 </r>
       <r>    -1.1988    49.0412   227.2141 </r>
       <r>    -1.1444    47.0023   229.7721 </r>
       <r>    -1.0900    54.8271   232.7560 </r>
       <r>    -1.0356    58.5860   235.9445 </r>
       <r>    -0.9811    60.6222   239.2438 </r>
       <r>    -0.9267    62.8166   242.6625 </r>
       <r>    -0.8723    55.4546   245.6805 </r>
       <r>    -0.8179    55.9695   248.7266 </r>
       <r>    -0.7634    60.1172   251.9984 </r>
       <r>    -0.7090    53.5629   254.9135 </r>
       <r>    -0.6546    52.6581   257.7794 </r>
       <r>    -0.6002    53.5657   260.6946 </r>
       <r>    -0.5457    41.4900   262.9526 </r>
       <r>    -0.4913    36.5233   264.9404 </r>
       <r>    -0.4369    35.6611   266.8812 </r>
       <r>    -0.3825    41.4257   269.1357 </r>
       <r>    -0.3280    41.4566   271.3920 </r>
       <r>    -0.2736    33.2937   273.2039 </r>
       <r>    -0.2192    17.5968   274.1616 </r>
       <r>    -0.1648    20.0403   275.2523 </r>
       <r>    -0.1104    23.3157   276.5212 </r>
       <r>    -0.0559    27.3347   278.0089 </r>
       <r>    -0.0015    31.2539   279.7098 </r>
       <r>     0.0529    12.7762   280.4051 </r>
       <r>     0.1073     1.7508   280.5004 </r>
       <r>     0.1618     1.9491   280.6065 </r>
       <r>     0.2162     9.4483   281.1207 </r>
       <r>     0.2706     9.6233   281.6445 </r>
       <r>     0.3250     7.9741   282.0784 </r>
       <r>     0.3795     9.0298   282.5699 </r>
       <r>     0.4339    16.5214   283.4690 </r>
       <r>     0.4883    21.0489   284.6146 </r>
       <r>     0.5427    22.5053   285.8394 </r>
       <r>     0.5972    18.4097   286.8413 </r>
       <r>     0.6516    23.5929   288.1253 </r>
       <r>     0.7060    28.0103   289.6498 </r>
       <r>     0.7604    30.6700   291.3189 </r>
       <r>     0.8149    27.9185   292.8384 </r>
       <r>     0.8693    27.9944   294.3619 </r>
       <r>     0.9237    21.8312   295.5501 </r>
       <r>     0.9781    14.9930   296.3660 </r>
       <r>     1.0325    23.6383   297.6525 </r>
       <r>     1.0870    27.5496   299.1519 </r>
       <r>     1.1414    28.6039   300.7086 </r>
       <r>     1.1958    30.3201   302.3588 </r>
       <r>     1.2502    22.9290   303.6066 </r>
       <r>     1.3047    29.7368   305.2250 </r>
       <r>     1.3591    44.6651   307.6559 </r>
       <r>     1.4135    55.0874   310.6539 </r>
       <r>     1.4679    38.2025   312.7331 </r>
       <r>     1.5224    28.3240   314.2746 </r>
       <r>     1.5768    19.2285   315.3210 </r>
       <r>     1.6312    17.4163   316.2689 </r>
       <r>     1.6856    35.2940   318.1897 </r>
       <r>     1.7401    49.1224   320.8632 </r>
       <r>     1.7945    60.6583   324.1644 </r>
       <r>     1.8489    52.3245   327.0121 </r>
       <r>     1.9033    47.2121   329.5816 </r>
       <r>     1.9577    46.4355   332.1088 </r>
       <r>     2.0122    52.3415   334.9574 </r>
       <r>     2.0666    57.7621   338.1010 </r>
       <r>     2.1210    54.7814   341.0824 </r>
       <r>     2.1754    55.6157   344.1092 </r>
       <r>     2.2299    52.4447   346.9635 </r>
       <r>     2.2843    51.8896   349.7875 </r>
       <r>     2.3387    30.2528   351.4340 </r>
       <r>     2.3931     8.8158   351.9138 </r>
       <r>     2.4476     1.5301   351.9970 </r>
       <r>     2.5020     0.0541   352.0000 </r>
       <r>     2.5564     0.0002   352.0000 </r>
       <r>     2.6108     0.0000   352.0000 </r>
       <r>     2.6653     0.0000   352.0000 </r>
       <r>     2.7197     0.0000   352.0000 </r>
       <r>     2.7741     0.0000   352.0000 </r>
       <r>     2.8285     0.0000   352.0000 </r>
       <r>     2.8830     0.0000   352.0000 </r>
       <r>     2.9374     0.0000   352.0000 </r>
       <r>     2.9918     0.0000   352.0000 </r>
       <r>     3.0462     0.0000   352.0000 </r>
       <r>     3.1006     0.0000   352.0000 </r>
      </set>
     </set>
    </array>
   </total>
  </dos>
 </calculation>
 <structure name="finalpos" >
  <crystal>
   <varray name="basis" >
    <v>      13.80799961       0.00000000       0.00000000 </v>
    <v>       0.00000000      12.73600006       0.00000000 </v>
    <v>       0.00000000       0.00000000      16.00000000 </v>
   </varray>
   <i name="volume">   2813.73894219 </i>
   <varray name="rec_basis" >
    <v>       0.07242179       0.00000000       0.00000000 </v>
    <v>       0.00000000       0.07851759       0.00000000 </v>
    <v>       0.00000000       0.00000000       0.06250000 </v>
   </varray>
  </crystal>
  <varray name="positions" >
   <v>       0.62499998       0.05253229       0.63219482 </v>
   <v>       0.35902693       0.04988312       0.62533017 </v>
   <v>       0.89097303       0.04988313       0.62533016 </v>
   <v>       0.12500000       0.55102005       0.62959639 </v>
   <v>       0.62499999       0.55023056       0.63207387 </v>
   <v>       0.37203353       0.55048705       0.63028247 </v>
   <v>       0.87796647       0.55048702       0.63028249 </v>
   <v>       0.12500001       0.37468891       0.40554459 </v>
   <v>       0.62500000       0.37615435       0.41035569 </v>
   <v>       0.37590470       0.37519945       0.40887846 </v>
   <v>       0.87409530       0.37519945       0.40887846 </v>
   <v>       0.12500002       0.86896629       0.39912073 </v>
   <v>       0.62500000       0.87617969       0.41091999 </v>
   <v>       0.37496618       0.87646923       0.40979215 </v>
   <v>       0.87503382       0.87646923       0.40979216 </v>
   <v>      -0.00218142       0.12959665       0.36446876 </v>
   <v>       0.50139039       0.12649428       0.37229914 </v>
   <v>       0.25218144       0.12959659       0.36446874 </v>
   <v>       0.74860961       0.12649429       0.37229916 </v>
   <v>      -0.00116590       0.62650424       0.37071592 </v>
   <v>       0.49980095       0.63126807       0.37488980 </v>
   <v>       0.25116591       0.62650423       0.37071593 </v>
   <v>       0.75019906       0.63126805       0.37488980 </v>
   <v>       0.00532400       0.30014658       0.59165374 </v>
   <v>       0.49717928       0.30392116       0.59322149 </v>
   <v>       0.24467601       0.30014659       0.59165374 </v>
   <v>       0.75282070       0.30392116       0.59322150 </v>
   <v>       0.00782187       0.80983892       0.59036708 </v>
   <v>       0.49737638       0.80635992       0.59529354 </v>
   <v>       0.24217811       0.80983896       0.59036706 </v>
   <v>       0.75262361       0.80635992       0.59529355 </v>
   <v>       0.12500003       0.17009351       0.48819960 </v>
   <v>       0.62500000       0.18161874       0.49629288 </v>
   <v>       0.37330376       0.17960010       0.49205145 </v>
   <v>       0.87669623       0.17960009       0.49205145 </v>
   <v>       0.12500001       0.67705487       0.49172526 </v>
   <v>       0.62500000       0.68223076       0.49811356 </v>
   <v>       0.37174260       0.68214493       0.49649107 </v>
   <v>       0.87825740       0.68214493       0.49649107 </v>
   <v>       0.01291220       0.00199580       0.49879126 </v>
   <v>       0.49930511       0.00112825       0.50906440 </v>
   <v>       0.23708783       0.00199580       0.49879122 </v>
   <v>       0.75069486       0.00112827       0.50906440 </v>
   <v>       0.00296118       0.49691377       0.50598297 </v>
   <v>       0.49906132       0.50048899       0.50879053 </v>
   <v>       0.24703883       0.49691379       0.50598296 </v>
   <v>       0.75093867       0.50048898       0.50879054 </v>
  </varray>
 </structure>
</modeling>
