<?xml version="1.0" encoding="ISO-8859-1"?>
<modeling>
 <generator>
  <i name="program" type="string">vasp </i>
  <i name="version" type="string">5.4.4.18Apr17-6-g9f103f2a35  </i>
  <i name="subversion" type="string">(build Nov 26 2018 16:29:41) complex            parallel </i>
  <i name="platform" type="string">LinuxIFC </i>
  <i name="date" type="string">2019 10 22 </i>
  <i name="time" type="string">14:47:15 </i>
 </generator>
 <incar>
  <i type="string" name="SYSTEM"> MoTe2</i>
  <i type="string" name="PREC">accurate</i>
  <i type="string" name="ALGO"> Normal</i>
  <i type="int" name="IBRION">    -1</i>
  <i name="EDIFF">      0.00010000</i>
  <i type="int" name="ISYM">     2</i>
  <i name="ENCUT">    400.00000000</i>
  <i name="POTIM">      0.50000000</i>
  <i type="logical" name="LREAL"> F  </i>
  <i type="int" name="ISMEAR">    -5</i>
  <i name="SIGMA">      0.05000000</i>
  <i type="int" name="NWRITE">     1</i>
  <i type="logical" name="LWAVE"> F  </i>
  <i type="logical" name="LCHARG"> T  </i>
  <i type="logical" name="LVTOT"> T  </i>
  <i type="logical" name="LASPH"> T  </i>
  <v type="int" name="KPOINT_BSE">    -1     0     0     0</v>
  <i type="logical" name="LUSE_VDW"> T  </i>
  <i name="BPARAM">     15.70000000</i>
  <i type="string" name="METAGGA"> SCAN</i>
  <i type="logical" name="LASPH"> T  </i>
 </incar>
 <structure name="primitive_cell" >
  <crystal>
   <varray name="basis" >
    <v>       3.50344967       0.00000000       0.00000000 </v>
    <v>       0.00000000       6.06808850       0.00000000 </v>
    <v>       0.00000000       0.00000000      35.00000000 </v>
   </varray>
   <i name="volume">    744.07349355 </i>
   <varray name="rec_basis" >
    <v>       0.28543296       0.00000000       0.00000000 </v>
    <v>       0.00000000       0.16479654       0.00000000 </v>
    <v>       0.00000000       0.00000000       0.02857143 </v>
   </varray>
  </crystal>
  <varray name="positions" >
   <v>       0.00000000      -0.33333788       0.16114054 </v>
   <v>      -0.50000000      -0.49999934       0.10961466 </v>
   <v>       0.00000000       0.00000066       0.10961466 </v>
   <v>      -0.50000000       0.16666212       0.16114054 </v>
   <v>       0.00000000      -0.33333770       0.05820024 </v>
   <v>       0.00000000       0.33333788       0.27733503 </v>
   <v>      -0.50000000      -0.16666212       0.27733503 </v>
   <v>      -0.50000000       0.16666230       0.05820024 </v>
   <v>      -0.50000000       0.49999934       0.32886091 </v>
   <v>       0.00000000      -0.00000066       0.32886091 </v>
   <v>       0.00000000       0.33333770       0.38027533 </v>
   <v>      -0.50000000      -0.16666230       0.38027533 </v>
   <v>      -0.50000000      -0.50000000       0.40000000 </v>
  </varray>
 </structure>
 <varray name="primitive_index" >
  <v type="int" >        1 </v>
  <v type="int" >       10 </v>
  <v type="int" >        9 </v>
  <v type="int" >        3 </v>
  <v type="int" >        2 </v>
  <v type="int" >        6 </v>
  <v type="int" >        8 </v>
  <v type="int" >        4 </v>
  <v type="int" >       12 </v>
  <v type="int" >       11 </v>
  <v type="int" >        5 </v>
  <v type="int" >        7 </v>
  <v type="int" >       13 </v>
 </varray>
 <kpoints>
  <generation param="Monkhorst-Pack">
   <v type="int" name="divisions">      20       10        1 </v>
   <v name="usershift">      0.00000000       0.00000000       0.00000000 </v>
   <v name="genvec1">      0.05000000       0.00000000       0.00000000 </v>
   <v name="genvec2">      0.00000000       0.10000000       0.00000000 </v>
   <v name="genvec3">      0.00000000       0.00000000       1.00000000 </v>
   <v name="shift">      0.50000000       0.50000000       0.00000000 </v>
  </generation>
  <varray name="kpointlist" >
   <v>       0.02500000       0.05000000       0.00000000 </v>
   <v>       0.07500000       0.05000000       0.00000000 </v>
   <v>       0.12500000       0.05000000       0.00000000 </v>
   <v>       0.17500000       0.05000000       0.00000000 </v>
   <v>       0.22500000       0.05000000       0.00000000 </v>
   <v>       0.27500000       0.05000000       0.00000000 </v>
   <v>       0.32500000       0.05000000       0.00000000 </v>
   <v>       0.37500000       0.05000000       0.00000000 </v>
   <v>       0.42500000       0.05000000       0.00000000 </v>
   <v>       0.47500000       0.05000000       0.00000000 </v>
   <v>       0.02500000       0.15000000       0.00000000 </v>
   <v>       0.07500000       0.15000000       0.00000000 </v>
   <v>       0.12500000       0.15000000       0.00000000 </v>
   <v>       0.17500000       0.15000000       0.00000000 </v>
   <v>       0.22500000       0.15000000       0.00000000 </v>
   <v>       0.27500000       0.15000000       0.00000000 </v>
   <v>       0.32500000       0.15000000       0.00000000 </v>
   <v>       0.37500000       0.15000000       0.00000000 </v>
   <v>       0.42500000       0.15000000       0.00000000 </v>
   <v>       0.47500000       0.15000000       0.00000000 </v>
   <v>       0.02500000       0.25000000       0.00000000 </v>
   <v>       0.07500000       0.25000000       0.00000000 </v>
   <v>       0.12500000       0.25000000       0.00000000 </v>
   <v>       0.17500000       0.25000000       0.00000000 </v>
   <v>       0.22500000       0.25000000       0.00000000 </v>
   <v>       0.27500000       0.25000000       0.00000000 </v>
   <v>       0.32500000       0.25000000       0.00000000 </v>
   <v>       0.37500000       0.25000000       0.00000000 </v>
   <v>       0.42500000       0.25000000       0.00000000 </v>
   <v>       0.47500000       0.25000000       0.00000000 </v>
   <v>       0.02500000       0.35000000       0.00000000 </v>
   <v>       0.07500000       0.35000000       0.00000000 </v>
   <v>       0.12500000       0.35000000       0.00000000 </v>
   <v>       0.17500000       0.35000000       0.00000000 </v>
   <v>       0.22500000       0.35000000       0.00000000 </v>
   <v>       0.27500000       0.35000000       0.00000000 </v>
   <v>       0.32500000       0.35000000       0.00000000 </v>
   <v>       0.37500000       0.35000000       0.00000000 </v>
   <v>       0.42500000       0.35000000       0.00000000 </v>
   <v>       0.47500000       0.35000000       0.00000000 </v>
   <v>       0.02500000       0.45000000       0.00000000 </v>
   <v>       0.07500000       0.45000000       0.00000000 </v>
   <v>       0.12500000       0.45000000       0.00000000 </v>
   <v>       0.17500000       0.45000000       0.00000000 </v>
   <v>       0.22500000       0.45000000       0.00000000 </v>
   <v>       0.27500000       0.45000000       0.00000000 </v>
   <v>       0.32500000       0.45000000       0.00000000 </v>
   <v>       0.37500000       0.45000000       0.00000000 </v>
   <v>       0.42500000       0.45000000       0.00000000 </v>
   <v>       0.47500000       0.45000000       0.00000000 </v>
  </varray>
  <varray name="weights" >
   <v>       0.02000000 </v>
   <v>       0.02000000 </v>
   <v>       0.02000000 </v>
   <v>       0.02000000 </v>
   <v>       0.02000000 </v>
   <v>       0.02000000 </v>
   <v>       0.02000000 </v>
   <v>       0.02000000 </v>
   <v>       0.02000000 </v>
   <v>       0.02000000 </v>
   <v>       0.02000000 </v>
   <v>       0.02000000 </v>
   <v>       0.02000000 </v>
   <v>       0.02000000 </v>
   <v>       0.02000000 </v>
   <v>       0.02000000 </v>
   <v>       0.02000000 </v>
   <v>       0.02000000 </v>
   <v>       0.02000000 </v>
   <v>       0.02000000 </v>
   <v>       0.02000000 </v>
   <v>       0.02000000 </v>
   <v>       0.02000000 </v>
   <v>       0.02000000 </v>
   <v>       0.02000000 </v>
   <v>       0.02000000 </v>
   <v>       0.02000000 </v>
   <v>       0.02000000 </v>
   <v>       0.02000000 </v>
   <v>       0.02000000 </v>
   <v>       0.02000000 </v>
   <v>       0.02000000 </v>
   <v>       0.02000000 </v>
   <v>       0.02000000 </v>
   <v>       0.02000000 </v>
   <v>       0.02000000 </v>
   <v>       0.02000000 </v>
   <v>       0.02000000 </v>
   <v>       0.02000000 </v>
   <v>       0.02000000 </v>
   <v>       0.02000000 </v>
   <v>       0.02000000 </v>
   <v>       0.02000000 </v>
   <v>       0.02000000 </v>
   <v>       0.02000000 </v>
   <v>       0.02000000 </v>
   <v>       0.02000000 </v>
   <v>       0.02000000 </v>
   <v>       0.02000000 </v>
   <v>       0.02000000 </v>
  </varray>
  <varray name="tetrahedronlist"  type="int" >
   <v type="int" >        2        1        1        2       12 </v>
   <v type="int" >        2        1        1       11       12 </v>
   <v type="int" >        2        1       11       11       12 </v>
   <v type="int" >        2        1        2        2       12 </v>
   <v type="int" >        2        1        2       12       12 </v>
   <v type="int" >        2        1       11       12       12 </v>
   <v type="int" >        2        2        2        3       13 </v>
   <v type="int" >        2        2        2       12       13 </v>
   <v type="int" >        2        2       12       12       13 </v>
   <v type="int" >        2        2        3        3       13 </v>
   <v type="int" >        2        2        3       13       13 </v>
   <v type="int" >        2        2       12       13       13 </v>
   <v type="int" >        2        3        3        4       14 </v>
   <v type="int" >        2        3        3       13       14 </v>
   <v type="int" >        2        3       13       13       14 </v>
   <v type="int" >        2        3        4        4       14 </v>
   <v type="int" >        2        3        4       14       14 </v>
   <v type="int" >        2        3       13       14       14 </v>
   <v type="int" >        2        4        4        5       15 </v>
   <v type="int" >        2        4        4       14       15 </v>
   <v type="int" >        2        4       14       14       15 </v>
   <v type="int" >        2        4        5        5       15 </v>
   <v type="int" >        2        4        5       15       15 </v>
   <v type="int" >        2        4       14       15       15 </v>
   <v type="int" >        2        5        5        6       16 </v>
   <v type="int" >        2        5        5       15       16 </v>
   <v type="int" >        2        5       15       15       16 </v>
   <v type="int" >        2        5        6        6       16 </v>
   <v type="int" >        2        5        6       16       16 </v>
   <v type="int" >        2        5       15       16       16 </v>
   <v type="int" >        2        6        6        7       17 </v>
   <v type="int" >        2        6        6       16       17 </v>
   <v type="int" >        2        6       16       16       17 </v>
   <v type="int" >        2        6        7        7       17 </v>
   <v type="int" >        2        6        7       17       17 </v>
   <v type="int" >        2        6       16       17       17 </v>
   <v type="int" >        2        7        7        8       18 </v>
   <v type="int" >        2        7        7       17       18 </v>
   <v type="int" >        2        7       17       17       18 </v>
   <v type="int" >        2        7        8        8       18 </v>
   <v type="int" >        2        7        8       18       18 </v>
   <v type="int" >        2        7       17       18       18 </v>
   <v type="int" >        2        8        8        9       19 </v>
   <v type="int" >        2        8        8       18       19 </v>
   <v type="int" >        2        8       18       18       19 </v>
   <v type="int" >        2        8        9        9       19 </v>
   <v type="int" >        2        8        9       19       19 </v>
   <v type="int" >        2        8       18       19       19 </v>
   <v type="int" >        2        9        9       10       20 </v>
   <v type="int" >        2        9        9       19       20 </v>
   <v type="int" >        2        9       19       19       20 </v>
   <v type="int" >        2        9       10       10       20 </v>
   <v type="int" >        2        9       10       20       20 </v>
   <v type="int" >        2        9       19       20       20 </v>
   <v type="int" >        4       10       10       10       20 </v>
   <v type="int" >        4       10       10       20       20 </v>
   <v type="int" >        4       10       20       20       20 </v>
   <v type="int" >        2        9       10       10       19 </v>
   <v type="int" >        2       10       10       19       20 </v>
   <v type="int" >        2       10       19       20       20 </v>
   <v type="int" >        2        9        9       10       19 </v>
   <v type="int" >        2        9       10       19       19 </v>
   <v type="int" >        2       10       19       19       20 </v>
   <v type="int" >        2        8        9        9       18 </v>
   <v type="int" >        2        9        9       18       19 </v>
   <v type="int" >        2        9       18       19       19 </v>
   <v type="int" >        2        8        8        9       18 </v>
   <v type="int" >        2        8        9       18       18 </v>
   <v type="int" >        2        9       18       18       19 </v>
   <v type="int" >        2        7        8        8       17 </v>
   <v type="int" >        2        8        8       17       18 </v>
   <v type="int" >        2        8       17       18       18 </v>
   <v type="int" >        2        7        7        8       17 </v>
   <v type="int" >        2        7        8       17       17 </v>
   <v type="int" >        2        8       17       17       18 </v>
   <v type="int" >        2        6        7        7       16 </v>
   <v type="int" >        2        7        7       16       17 </v>
   <v type="int" >        2        7       16       17       17 </v>
   <v type="int" >        2        6        6        7       16 </v>
   <v type="int" >        2        6        7       16       16 </v>
   <v type="int" >        2        7       16       16       17 </v>
   <v type="int" >        2        5        6        6       15 </v>
   <v type="int" >        2        6        6       15       16 </v>
   <v type="int" >        2        6       15       16       16 </v>
   <v type="int" >        2        5        5        6       15 </v>
   <v type="int" >        2        5        6       15       15 </v>
   <v type="int" >        2        6       15       15       16 </v>
   <v type="int" >        2        4        5        5       14 </v>
   <v type="int" >        2        5        5       14       15 </v>
   <v type="int" >        2        5       14       15       15 </v>
   <v type="int" >        2        4        4        5       14 </v>
   <v type="int" >        2        4        5       14       14 </v>
   <v type="int" >        2        5       14       14       15 </v>
   <v type="int" >        2        3        4        4       13 </v>
   <v type="int" >        2        4        4       13       14 </v>
   <v type="int" >        2        4       13       14       14 </v>
   <v type="int" >        2        3        3        4       13 </v>
   <v type="int" >        2        3        4       13       13 </v>
   <v type="int" >        2        4       13       13       14 </v>
   <v type="int" >        2        2        3        3       12 </v>
   <v type="int" >        2        3        3       12       13 </v>
   <v type="int" >        2        3       12       13       13 </v>
   <v type="int" >        2        2        2        3       12 </v>
   <v type="int" >        2        2        3       12       12 </v>
   <v type="int" >        2        3       12       12       13 </v>
   <v type="int" >        2        1        2        2       11 </v>
   <v type="int" >        2        2        2       11       12 </v>
   <v type="int" >        2        2       11       12       12 </v>
   <v type="int" >        2        1        1        2       11 </v>
   <v type="int" >        2        1        2       11       11 </v>
   <v type="int" >        2        2       11       11       12 </v>
   <v type="int" >        4        1        1        1       11 </v>
   <v type="int" >        4        1        1       11       11 </v>
   <v type="int" >        4        1       11       11       11 </v>
   <v type="int" >        2       11       11       12       22 </v>
   <v type="int" >        2       11       11       21       22 </v>
   <v type="int" >        2       11       21       21       22 </v>
   <v type="int" >        2       11       12       12       22 </v>
   <v type="int" >        2       11       12       22       22 </v>
   <v type="int" >        2       11       21       22       22 </v>
   <v type="int" >        2       12       12       13       23 </v>
   <v type="int" >        2       12       12       22       23 </v>
   <v type="int" >        2       12       22       22       23 </v>
   <v type="int" >        2       12       13       13       23 </v>
   <v type="int" >        2       12       13       23       23 </v>
   <v type="int" >        2       12       22       23       23 </v>
   <v type="int" >        2       13       13       14       24 </v>
   <v type="int" >        2       13       13       23       24 </v>
   <v type="int" >        2       13       23       23       24 </v>
   <v type="int" >        2       13       14       14       24 </v>
   <v type="int" >        2       13       14       24       24 </v>
   <v type="int" >        2       13       23       24       24 </v>
   <v type="int" >        2       14       14       15       25 </v>
   <v type="int" >        2       14       14       24       25 </v>
   <v type="int" >        2       14       24       24       25 </v>
   <v type="int" >        2       14       15       15       25 </v>
   <v type="int" >        2       14       15       25       25 </v>
   <v type="int" >        2       14       24       25       25 </v>
   <v type="int" >        2       15       15       16       26 </v>
   <v type="int" >        2       15       15       25       26 </v>
   <v type="int" >        2       15       25       25       26 </v>
   <v type="int" >        2       15       16       16       26 </v>
   <v type="int" >        2       15       16       26       26 </v>
   <v type="int" >        2       15       25       26       26 </v>
   <v type="int" >        2       16       16       17       27 </v>
   <v type="int" >        2       16       16       26       27 </v>
   <v type="int" >        2       16       26       26       27 </v>
   <v type="int" >        2       16       17       17       27 </v>
   <v type="int" >        2       16       17       27       27 </v>
   <v type="int" >        2       16       26       27       27 </v>
   <v type="int" >        2       17       17       18       28 </v>
   <v type="int" >        2       17       17       27       28 </v>
   <v type="int" >        2       17       27       27       28 </v>
   <v type="int" >        2       17       18       18       28 </v>
   <v type="int" >        2       17       18       28       28 </v>
   <v type="int" >        2       17       27       28       28 </v>
   <v type="int" >        2       18       18       19       29 </v>
   <v type="int" >        2       18       18       28       29 </v>
   <v type="int" >        2       18       28       28       29 </v>
   <v type="int" >        2       18       19       19       29 </v>
   <v type="int" >        2       18       19       29       29 </v>
   <v type="int" >        2       18       28       29       29 </v>
   <v type="int" >        2       19       19       20       30 </v>
   <v type="int" >        2       19       19       29       30 </v>
   <v type="int" >        2       19       29       29       30 </v>
   <v type="int" >        2       19       20       20       30 </v>
   <v type="int" >        2       19       20       30       30 </v>
   <v type="int" >        2       19       29       30       30 </v>
   <v type="int" >        4       20       20       20       30 </v>
   <v type="int" >        4       20       20       30       30 </v>
   <v type="int" >        4       20       30       30       30 </v>
   <v type="int" >        2       19       20       20       29 </v>
   <v type="int" >        2       20       20       29       30 </v>
   <v type="int" >        2       20       29       30       30 </v>
   <v type="int" >        2       19       19       20       29 </v>
   <v type="int" >        2       19       20       29       29 </v>
   <v type="int" >        2       20       29       29       30 </v>
   <v type="int" >        2       18       19       19       28 </v>
   <v type="int" >        2       19       19       28       29 </v>
   <v type="int" >        2       19       28       29       29 </v>
   <v type="int" >        2       18       18       19       28 </v>
   <v type="int" >        2       18       19       28       28 </v>
   <v type="int" >        2       19       28       28       29 </v>
   <v type="int" >        2       17       18       18       27 </v>
   <v type="int" >        2       18       18       27       28 </v>
   <v type="int" >        2       18       27       28       28 </v>
   <v type="int" >        2       17       17       18       27 </v>
   <v type="int" >        2       17       18       27       27 </v>
   <v type="int" >        2       18       27       27       28 </v>
   <v type="int" >        2       16       17       17       26 </v>
   <v type="int" >        2       17       17       26       27 </v>
   <v type="int" >        2       17       26       27       27 </v>
   <v type="int" >        2       16       16       17       26 </v>
   <v type="int" >        2       16       17       26       26 </v>
   <v type="int" >        2       17       26       26       27 </v>
   <v type="int" >        2       15       16       16       25 </v>
   <v type="int" >        2       16       16       25       26 </v>
   <v type="int" >        2       16       25       26       26 </v>
   <v type="int" >        2       15       15       16       25 </v>
   <v type="int" >        2       15       16       25       25 </v>
   <v type="int" >        2       16       25       25       26 </v>
   <v type="int" >        2       14       15       15       24 </v>
   <v type="int" >        2       15       15       24       25 </v>
   <v type="int" >        2       15       24       25       25 </v>
   <v type="int" >        2       14       14       15       24 </v>
   <v type="int" >        2       14       15       24       24 </v>
   <v type="int" >        2       15       24       24       25 </v>
   <v type="int" >        2       13       14       14       23 </v>
   <v type="int" >        2       14       14       23       24 </v>
   <v type="int" >        2       14       23       24       24 </v>
   <v type="int" >        2       13       13       14       23 </v>
   <v type="int" >        2       13       14       23       23 </v>
   <v type="int" >        2       14       23       23       24 </v>
   <v type="int" >        2       12       13       13       22 </v>
   <v type="int" >        2       13       13       22       23 </v>
   <v type="int" >        2       13       22       23       23 </v>
   <v type="int" >        2       12       12       13       22 </v>
   <v type="int" >        2       12       13       22       22 </v>
   <v type="int" >        2       13       22       22       23 </v>
   <v type="int" >        2       11       12       12       21 </v>
   <v type="int" >        2       12       12       21       22 </v>
   <v type="int" >        2       12       21       22       22 </v>
   <v type="int" >        2       11       11       12       21 </v>
   <v type="int" >        2       11       12       21       21 </v>
   <v type="int" >        2       12       21       21       22 </v>
   <v type="int" >        4       11       11       11       21 </v>
   <v type="int" >        4       11       11       21       21 </v>
   <v type="int" >        4       11       21       21       21 </v>
   <v type="int" >        2       21       21       22       32 </v>
   <v type="int" >        2       21       21       31       32 </v>
   <v type="int" >        2       21       31       31       32 </v>
   <v type="int" >        2       21       22       22       32 </v>
   <v type="int" >        2       21       22       32       32 </v>
   <v type="int" >        2       21       31       32       32 </v>
   <v type="int" >        2       22       22       23       33 </v>
   <v type="int" >        2       22       22       32       33 </v>
   <v type="int" >        2       22       32       32       33 </v>
   <v type="int" >        2       22       23       23       33 </v>
   <v type="int" >        2       22       23       33       33 </v>
   <v type="int" >        2       22       32       33       33 </v>
   <v type="int" >        2       23       23       24       34 </v>
   <v type="int" >        2       23       23       33       34 </v>
   <v type="int" >        2       23       33       33       34 </v>
   <v type="int" >        2       23       24       24       34 </v>
   <v type="int" >        2       23       24       34       34 </v>
   <v type="int" >        2       23       33       34       34 </v>
   <v type="int" >        2       24       24       25       35 </v>
   <v type="int" >        2       24       24       34       35 </v>
   <v type="int" >        2       24       34       34       35 </v>
   <v type="int" >        2       24       25       25       35 </v>
   <v type="int" >        2       24       25       35       35 </v>
   <v type="int" >        2       24       34       35       35 </v>
   <v type="int" >        2       25       25       26       36 </v>
   <v type="int" >        2       25       25       35       36 </v>
   <v type="int" >        2       25       35       35       36 </v>
   <v type="int" >        2       25       26       26       36 </v>
   <v type="int" >        2       25       26       36       36 </v>
   <v type="int" >        2       25       35       36       36 </v>
   <v type="int" >        2       26       26       27       37 </v>
   <v type="int" >        2       26       26       36       37 </v>
   <v type="int" >        2       26       36       36       37 </v>
   <v type="int" >        2       26       27       27       37 </v>
   <v type="int" >        2       26       27       37       37 </v>
   <v type="int" >        2       26       36       37       37 </v>
   <v type="int" >        2       27       27       28       38 </v>
   <v type="int" >        2       27       27       37       38 </v>
   <v type="int" >        2       27       37       37       38 </v>
   <v type="int" >        2       27       28       28       38 </v>
   <v type="int" >        2       27       28       38       38 </v>
   <v type="int" >        2       27       37       38       38 </v>
   <v type="int" >        2       28       28       29       39 </v>
   <v type="int" >        2       28       28       38       39 </v>
   <v type="int" >        2       28       38       38       39 </v>
   <v type="int" >        2       28       29       29       39 </v>
   <v type="int" >        2       28       29       39       39 </v>
   <v type="int" >        2       28       38       39       39 </v>
   <v type="int" >        2       29       29       30       40 </v>
   <v type="int" >        2       29       29       39       40 </v>
   <v type="int" >        2       29       39       39       40 </v>
   <v type="int" >        2       29       30       30       40 </v>
   <v type="int" >        2       29       30       40       40 </v>
   <v type="int" >        2       29       39       40       40 </v>
   <v type="int" >        4       30       30       30       40 </v>
   <v type="int" >        4       30       30       40       40 </v>
   <v type="int" >        4       30       40       40       40 </v>
   <v type="int" >        2       29       30       30       39 </v>
   <v type="int" >        2       30       30       39       40 </v>
   <v type="int" >        2       30       39       40       40 </v>
   <v type="int" >        2       29       29       30       39 </v>
   <v type="int" >        2       29       30       39       39 </v>
   <v type="int" >        2       30       39       39       40 </v>
   <v type="int" >        2       28       29       29       38 </v>
   <v type="int" >        2       29       29       38       39 </v>
   <v type="int" >        2       29       38       39       39 </v>
   <v type="int" >        2       28       28       29       38 </v>
   <v type="int" >        2       28       29       38       38 </v>
   <v type="int" >        2       29       38       38       39 </v>
   <v type="int" >        2       27       28       28       37 </v>
   <v type="int" >        2       28       28       37       38 </v>
   <v type="int" >        2       28       37       38       38 </v>
   <v type="int" >        2       27       27       28       37 </v>
   <v type="int" >        2       27       28       37       37 </v>
   <v type="int" >        2       28       37       37       38 </v>
   <v type="int" >        2       26       27       27       36 </v>
   <v type="int" >        2       27       27       36       37 </v>
   <v type="int" >        2       27       36       37       37 </v>
   <v type="int" >        2       26       26       27       36 </v>
   <v type="int" >        2       26       27       36       36 </v>
   <v type="int" >        2       27       36       36       37 </v>
   <v type="int" >        2       25       26       26       35 </v>
   <v type="int" >        2       26       26       35       36 </v>
   <v type="int" >        2       26       35       36       36 </v>
   <v type="int" >        2       25       25       26       35 </v>
   <v type="int" >        2       25       26       35       35 </v>
   <v type="int" >        2       26       35       35       36 </v>
   <v type="int" >        2       24       25       25       34 </v>
   <v type="int" >        2       25       25       34       35 </v>
   <v type="int" >        2       25       34       35       35 </v>
   <v type="int" >        2       24       24       25       34 </v>
   <v type="int" >        2       24       25       34       34 </v>
   <v type="int" >        2       25       34       34       35 </v>
   <v type="int" >        2       23       24       24       33 </v>
   <v type="int" >        2       24       24       33       34 </v>
   <v type="int" >        2       24       33       34       34 </v>
   <v type="int" >        2       23       23       24       33 </v>
   <v type="int" >        2       23       24       33       33 </v>
   <v type="int" >        2       24       33       33       34 </v>
   <v type="int" >        2       22       23       23       32 </v>
   <v type="int" >        2       23       23       32       33 </v>
   <v type="int" >        2       23       32       33       33 </v>
   <v type="int" >        2       22       22       23       32 </v>
   <v type="int" >        2       22       23       32       32 </v>
   <v type="int" >        2       23       32       32       33 </v>
   <v type="int" >        2       21       22       22       31 </v>
   <v type="int" >        2       22       22       31       32 </v>
   <v type="int" >        2       22       31       32       32 </v>
   <v type="int" >        2       21       21       22       31 </v>
   <v type="int" >        2       21       22       31       31 </v>
   <v type="int" >        2       22       31       31       32 </v>
   <v type="int" >        4       21       21       21       31 </v>
   <v type="int" >        4       21       21       31       31 </v>
   <v type="int" >        4       21       31       31       31 </v>
   <v type="int" >        2       31       31       32       42 </v>
   <v type="int" >        2       31       31       41       42 </v>
   <v type="int" >        2       31       41       41       42 </v>
   <v type="int" >        2       31       32       32       42 </v>
   <v type="int" >        2       31       32       42       42 </v>
   <v type="int" >        2       31       41       42       42 </v>
   <v type="int" >        2       32       32       33       43 </v>
   <v type="int" >        2       32       32       42       43 </v>
   <v type="int" >        2       32       42       42       43 </v>
   <v type="int" >        2       32       33       33       43 </v>
   <v type="int" >        2       32       33       43       43 </v>
   <v type="int" >        2       32       42       43       43 </v>
   <v type="int" >        2       33       33       34       44 </v>
   <v type="int" >        2       33       33       43       44 </v>
   <v type="int" >        2       33       43       43       44 </v>
   <v type="int" >        2       33       34       34       44 </v>
   <v type="int" >        2       33       34       44       44 </v>
   <v type="int" >        2       33       43       44       44 </v>
   <v type="int" >        2       34       34       35       45 </v>
   <v type="int" >        2       34       34       44       45 </v>
   <v type="int" >        2       34       44       44       45 </v>
   <v type="int" >        2       34       35       35       45 </v>
   <v type="int" >        2       34       35       45       45 </v>
   <v type="int" >        2       34       44       45       45 </v>
   <v type="int" >        2       35       35       36       46 </v>
   <v type="int" >        2       35       35       45       46 </v>
   <v type="int" >        2       35       45       45       46 </v>
   <v type="int" >        2       35       36       36       46 </v>
   <v type="int" >        2       35       36       46       46 </v>
   <v type="int" >        2       35       45       46       46 </v>
   <v type="int" >        2       36       36       37       47 </v>
   <v type="int" >        2       36       36       46       47 </v>
   <v type="int" >        2       36       46       46       47 </v>
   <v type="int" >        2       36       37       37       47 </v>
   <v type="int" >        2       36       37       47       47 </v>
   <v type="int" >        2       36       46       47       47 </v>
   <v type="int" >        2       37       37       38       48 </v>
   <v type="int" >        2       37       37       47       48 </v>
   <v type="int" >        2       37       47       47       48 </v>
   <v type="int" >        2       37       38       38       48 </v>
   <v type="int" >        2       37       38       48       48 </v>
   <v type="int" >        2       37       47       48       48 </v>
   <v type="int" >        2       38       38       39       49 </v>
   <v type="int" >        2       38       38       48       49 </v>
   <v type="int" >        2       38       48       48       49 </v>
   <v type="int" >        2       38       39       39       49 </v>
   <v type="int" >        2       38       39       49       49 </v>
   <v type="int" >        2       38       48       49       49 </v>
   <v type="int" >        2       39       39       40       50 </v>
   <v type="int" >        2       39       39       49       50 </v>
   <v type="int" >        2       39       49       49       50 </v>
   <v type="int" >        2       39       40       40       50 </v>
   <v type="int" >        2       39       40       50       50 </v>
   <v type="int" >        2       39       49       50       50 </v>
   <v type="int" >        4       40       40       40       50 </v>
   <v type="int" >        4       40       40       50       50 </v>
   <v type="int" >        4       40       50       50       50 </v>
   <v type="int" >        2       39       40       40       49 </v>
   <v type="int" >        2       40       40       49       50 </v>
   <v type="int" >        2       40       49       50       50 </v>
   <v type="int" >        2       39       39       40       49 </v>
   <v type="int" >        2       39       40       49       49 </v>
   <v type="int" >        2       40       49       49       50 </v>
   <v type="int" >        2       38       39       39       48 </v>
   <v type="int" >        2       39       39       48       49 </v>
   <v type="int" >        2       39       48       49       49 </v>
   <v type="int" >        2       38       38       39       48 </v>
   <v type="int" >        2       38       39       48       48 </v>
   <v type="int" >        2       39       48       48       49 </v>
   <v type="int" >        2       37       38       38       47 </v>
   <v type="int" >        2       38       38       47       48 </v>
   <v type="int" >        2       38       47       48       48 </v>
   <v type="int" >        2       37       37       38       47 </v>
   <v type="int" >        2       37       38       47       47 </v>
   <v type="int" >        2       38       47       47       48 </v>
   <v type="int" >        2       36       37       37       46 </v>
   <v type="int" >        2       37       37       46       47 </v>
   <v type="int" >        2       37       46       47       47 </v>
   <v type="int" >        2       36       36       37       46 </v>
   <v type="int" >        2       36       37       46       46 </v>
   <v type="int" >        2       37       46       46       47 </v>
   <v type="int" >        2       35       36       36       45 </v>
   <v type="int" >        2       36       36       45       46 </v>
   <v type="int" >        2       36       45       46       46 </v>
   <v type="int" >        2       35       35       36       45 </v>
   <v type="int" >        2       35       36       45       45 </v>
   <v type="int" >        2       36       45       45       46 </v>
   <v type="int" >        2       34       35       35       44 </v>
   <v type="int" >        2       35       35       44       45 </v>
   <v type="int" >        2       35       44       45       45 </v>
   <v type="int" >        2       34       34       35       44 </v>
   <v type="int" >        2       34       35       44       44 </v>
   <v type="int" >        2       35       44       44       45 </v>
   <v type="int" >        2       33       34       34       43 </v>
   <v type="int" >        2       34       34       43       44 </v>
   <v type="int" >        2       34       43       44       44 </v>
   <v type="int" >        2       33       33       34       43 </v>
   <v type="int" >        2       33       34       43       43 </v>
   <v type="int" >        2       34       43       43       44 </v>
   <v type="int" >        2       32       33       33       42 </v>
   <v type="int" >        2       33       33       42       43 </v>
   <v type="int" >        2       33       42       43       43 </v>
   <v type="int" >        2       32       32       33       42 </v>
   <v type="int" >        2       32       33       42       42 </v>
   <v type="int" >        2       33       42       42       43 </v>
   <v type="int" >        2       31       32       32       41 </v>
   <v type="int" >        2       32       32       41       42 </v>
   <v type="int" >        2       32       41       42       42 </v>
   <v type="int" >        2       31       31       32       41 </v>
   <v type="int" >        2       31       32       41       41 </v>
   <v type="int" >        2       32       41       41       42 </v>
   <v type="int" >        4       31       31       31       41 </v>
   <v type="int" >        4       31       31       41       41 </v>
   <v type="int" >        4       31       41       41       41 </v>
   <v type="int" >        4       41       41       42       42 </v>
   <v type="int" >        4       41       41       41       42 </v>
   <v type="int" >        4       41       42       42       42 </v>
   <v type="int" >        4       42       42       43       43 </v>
   <v type="int" >        4       42       42       42       43 </v>
   <v type="int" >        4       42       43       43       43 </v>
   <v type="int" >        4       43       43       44       44 </v>
   <v type="int" >        4       43       43       43       44 </v>
   <v type="int" >        4       43       44       44       44 </v>
   <v type="int" >        4       44       44       45       45 </v>
   <v type="int" >        4       44       44       44       45 </v>
   <v type="int" >        4       44       45       45       45 </v>
   <v type="int" >        4       45       45       46       46 </v>
   <v type="int" >        4       45       45       45       46 </v>
   <v type="int" >        4       45       46       46       46 </v>
   <v type="int" >        4       46       46       47       47 </v>
   <v type="int" >        4       46       46       46       47 </v>
   <v type="int" >        4       46       47       47       47 </v>
   <v type="int" >        4       47       47       48       48 </v>
   <v type="int" >        4       47       47       47       48 </v>
   <v type="int" >        4       47       48       48       48 </v>
   <v type="int" >        4       48       48       49       49 </v>
   <v type="int" >        4       48       48       48       49 </v>
   <v type="int" >        4       48       49       49       49 </v>
   <v type="int" >        4       49       49       50       50 </v>
   <v type="int" >        4       49       49       49       50 </v>
   <v type="int" >        4       49       50       50       50 </v>
   <v type="int" >        6       50       50       50       50 </v>
   <v type="int" >        6       41       41       41       41 </v>
   <v type="int" >        4        1        1        2        2 </v>
   <v type="int" >        4        1        1        1        2 </v>
   <v type="int" >        4        1        2        2        2 </v>
   <v type="int" >        4        2        2        3        3 </v>
   <v type="int" >        4        2        2        2        3 </v>
   <v type="int" >        4        2        3        3        3 </v>
   <v type="int" >        4        3        3        4        4 </v>
   <v type="int" >        4        3        3        3        4 </v>
   <v type="int" >        4        3        4        4        4 </v>
   <v type="int" >        4        4        4        5        5 </v>
   <v type="int" >        4        4        4        4        5 </v>
   <v type="int" >        4        4        5        5        5 </v>
   <v type="int" >        4        5        5        6        6 </v>
   <v type="int" >        4        5        5        5        6 </v>
   <v type="int" >        4        5        6        6        6 </v>
   <v type="int" >        4        6        6        7        7 </v>
   <v type="int" >        4        6        6        6        7 </v>
   <v type="int" >        4        6        7        7        7 </v>
   <v type="int" >        4        7        7        8        8 </v>
   <v type="int" >        4        7        7        7        8 </v>
   <v type="int" >        4        7        8        8        8 </v>
   <v type="int" >        4        8        8        9        9 </v>
   <v type="int" >        4        8        8        8        9 </v>
   <v type="int" >        4        8        9        9        9 </v>
   <v type="int" >        4        9        9       10       10 </v>
   <v type="int" >        4        9        9        9       10 </v>
   <v type="int" >        4        9       10       10       10 </v>
   <v type="int" >        6       10       10       10       10 </v>
   <v type="int" >        6        1        1        1        1 </v>
  </varray>
  <i name="volumeweight">      0.00083333 </i>
 </kpoints>
 <parameters>
  <separator name="general" >
   <i type="string" name="SYSTEM">MoTe2</i>
   <i type="logical" name="LCOMPAT"> F  </i>
  </separator>
  <separator name="electronic" >
   <i type="string" name="PREC">accura</i>
   <i name="ENMAX">    400.00000000</i>
   <i name="ENAUG">    368.79200000</i>
   <i name="EDIFF">      0.00010000</i>
   <i type="int" name="IALGO">    38</i>
   <i type="int" name="IWAVPR">    10</i>
   <i type="int" name="NBANDS">    44</i>
   <i name="NELECT">     73.00000000</i>
   <i type="int" name="TURBO">     0</i>
   <i type="int" name="IRESTART">     0</i>
   <i type="int" name="NREBOOT">     0</i>
   <i type="int" name="NMIN">     0</i>
   <i name="EREF">      0.00000000</i>
   <separator name="electronic smearing" >
    <i type="int" name="ISMEAR">    -5</i>
    <i name="SIGMA">      0.05000000</i>
    <i name="KSPACING">      0.50000000</i>
    <i type="logical" name="KGAMMA"> T  </i>
   </separator>
   <separator name="electronic projectors" >
    <i type="logical" name="LREAL"> F  </i>
    <v name="ROPT">      0.00000000      0.00000000      0.00000000</v>
    <i type="int" name="LMAXPAW">  -100</i>
    <i type="int" name="LMAXMIX">     2</i>
    <i type="logical" name="NLSPLINE"> F  </i>
   </separator>
   <separator name="electronic startup" >
    <i type="int" name="ISTART">     0</i>
    <i type="int" name="ICHARG">     2</i>
    <i type="int" name="INIWAV">     1</i>
   </separator>
   <separator name="electronic spin" >
    <i type="int" name="ISPIN">     1</i>
    <i type="logical" name="LNONCOLLINEAR"> F  </i>
    <v name="MAGMOM">      1.00000000      1.00000000      1.00000000      1.00000000      1.00000000      1.00000000      1.00000000      1.00000000      1.00000000      1.00000000      1.00000000      1.00000000      1.00000000</v>
    <i name="NUPDOWN">     -1.00000000</i>
    <i type="logical" name="LSORBIT"> F  </i>
    <v name="SAXIS">      0.00000000      0.00000000      1.00000000</v>
    <i type="logical" name="LSPIRAL"> F  </i>
    <v name="QSPIRAL">      0.00000000      0.00000000      0.00000000</v>
    <i type="logical" name="LZEROZ"> F  </i>
   </separator>
   <separator name="electronic exchange-correlation" >
    <i type="logical" name="LASPH"> T  </i>
    <i type="logical" name="LMETAGGA"> F  </i>
   </separator>
   <separator name="electronic convergence" >
    <i type="int" name="NELM">    60</i>
    <i type="int" name="NELMDL">     0</i>
    <i type="int" name="NELMIN">     2</i>
    <i name="ENINI">    400.00000000</i>
    <separator name="electronic convergence detail" >
     <i type="logical" name="LDIAG"> T  </i>
     <i type="logical" name="LSUBROT"> F  </i>
     <i name="WEIMIN">      0.00000000</i>
     <i name="EBREAK">      0.00000057</i>
     <i name="DEPER">      0.30000000</i>
     <i type="int" name="NRMM">     4</i>
     <i name="TIME">      0.40000000</i>
    </separator>
   </separator>
   <separator name="electronic mixer" >
    <i name="AMIX">      0.40000000</i>
    <i name="BMIX">      1.00000000</i>
    <i name="AMIN">      0.10000000</i>
    <i name="AMIX_MAG">      1.60000000</i>
    <i name="BMIX_MAG">      1.00000000</i>
    <separator name="electronic mixer details" >
     <i type="int" name="IMIX">     4</i>
     <i type="logical" name="MIXFIRST"> F  </i>
     <i type="int" name="MAXMIX">   -45</i>
     <i name="WC">    100.00000000</i>
     <i type="int" name="INIMIX">     1</i>
     <i type="int" name="MIXPRE">     1</i>
     <i type="int" name="MREMOVE">     5</i>
    </separator>
   </separator>
   <separator name="electronic dipolcorrection" >
    <i type="logical" name="LDIPOL"> F  </i>
    <i type="logical" name="LMONO"> F  </i>
    <i type="int" name="IDIPOL">     0</i>
    <i name="EPSILON">      1.00000000</i>
    <v name="DIPOL">   -100.00000000   -100.00000000   -100.00000000</v>
    <i name="EFIELD">      0.00000000</i>
   </separator>
  </separator>
  <separator name="grids" >
   <i type="int" name="NGX">    24</i>
   <i type="int" name="NGY">    40</i>
   <i type="int" name="NGZ">   240</i>
   <i type="int" name="NGXF">    48</i>
   <i type="int" name="NGYF">    80</i>
   <i type="int" name="NGZF">   480</i>
   <i type="logical" name="ADDGRID"> F  </i>
  </separator>
  <separator name="ionic" >
   <i type="int" name="NSW">     0</i>
   <i type="int" name="IBRION">    -1</i>
   <i type="int" name="MDALGO">     0</i>
   <i type="int" name="ISIF">     2</i>
   <i name="PSTRESS">      0.00000000</i>
   <i name="EDIFFG">      0.00100000</i>
   <i type="int" name="NFREE">     0</i>
   <i name="POTIM">      0.50000000</i>
   <i name="SMASS">     -3.00000000</i>
   <i name="SCALEE">      1.00000000</i>
  </separator>
  <separator name="ionic md" >
   <i name="TEBEG">      0.00010000</i>
   <i name="TEEND">      0.00010000</i>
   <i type="int" name="NBLOCK">     1</i>
   <i type="int" name="KBLOCK">     1</i>
   <i type="int" name="NPACO">   256</i>
   <i name="APACO">     16.00000000</i>
  </separator>
  <separator name="symmetry" >
   <i type="int" name="ISYM">     2</i>
   <i name="SYMPREC">      0.00001000</i>
  </separator>
  <separator name="dos" >
   <i type="int" name="LORBIT">     0</i>
   <v name="RWIGS">     -1.00000000     -1.00000000     -1.00000000</v>
   <i type="int" name="NEDOS">   301</i>
   <i name="EMIN">     10.00000000</i>
   <i name="EMAX">    -10.00000000</i>
   <i name="EFERMI">      0.00000000</i>
  </separator>
  <separator name="writing" >
   <i type="int" name="NWRITE">     1</i>
   <i type="logical" name="LWAVE"> F  </i>
   <i type="logical" name="LDOWNSAMPLE"> F  </i>
   <i type="logical" name="LCHARG"> T  </i>
   <i type="logical" name="LPARD"> F  </i>
   <i type="logical" name="LVTOT"> T  </i>
   <i type="logical" name="LVHAR"> F  </i>
   <i type="logical" name="LELF"> F  </i>
   <i type="logical" name="LOPTICS"> F  </i>
   <v name="STM">      0.00000000      0.00000000      0.00000000      0.00000000      0.00000000      0.00000000      0.00000000</v>
  </separator>
  <separator name="performance" >
   <i type="int" name="NPAR">     4</i>
   <i type="int" name="NSIM">     4</i>
   <i type="int" name="NBLK">    -1</i>
   <i type="logical" name="LPLANE"> T  </i>
   <i type="logical" name="LSCALAPACK"> T  </i>
   <i type="logical" name="LSCAAWARE"> F  </i>
   <i type="logical" name="LSCALU"> F  </i>
   <i type="logical" name="LASYNC"> F  </i>
   <i type="logical" name="LORBITALREAL"> F  </i>
  </separator>
  <separator name="miscellaneous" >
   <i type="int" name="IDIOT">     3</i>
   <i type="int" name="ISPECIAL">     0</i>
   <i type="logical" name="LMUSIC"> F  </i>
   <v name="POMASS">    127.60000000     95.94000000      7.01000000</v>
   <v name="DARWINR">      0.00000000      0.00000000      0.00000000</v>
   <v name="DARWINV">      1.00000000      1.00000000      1.00000000</v>
   <i type="logical" name="LCORR"> T  </i>
  </separator>
  <i type="logical" name="GGA_COMPAT"> T  </i>
  <i type="logical" name="LBERRY"> F  </i>
  <i type="int" name="ICORELEVEL">     0</i>
  <i type="logical" name="LDAU"> F  </i>
  <i type="int" name="I_CONSTRAINED_M">     0</i>
  <separator name="electronic exchange-correlation" >
   <i type="string" name="GGA">--</i>
   <i type="int" name="VOSKOWN">     0</i>
   <i type="logical" name="LHFCALC"> F  </i>
   <i type="string" name="PRECFOCK"></i>
   <i type="logical" name="LSYMGRAD"> F  </i>
   <i type="logical" name="LHFONE"> F  </i>
   <i type="logical" name="LRHFCALC"> F  </i>
   <i type="logical" name="LTHOMAS"> F  </i>
   <i type="logical" name="LMODELHF"> F  </i>
   <i name="ENCUT4O">     -1.00000000</i>
   <i type="int" name="EXXOEP">     0</i>
   <i type="int" name="FOURORBIT">     0</i>
   <i name="AEXX">      0.00000000</i>
   <i name="HFALPHA">      0.00000000</i>
   <i name="MCALPHA">      0.00000000</i>
   <i name="ALDAX">      1.00000000</i>
   <i name="AGGAX">      1.00000000</i>
   <i name="ALDAC">      1.00000000</i>
   <i name="AGGAC">      1.00000000</i>
   <i type="int" name="NKREDX">     1</i>
   <i type="int" name="NKREDY">     1</i>
   <i type="int" name="NKREDZ">     1</i>
   <i type="logical" name="SHIFTRED"> F  </i>
   <i type="logical" name="ODDONLY"> F  </i>
   <i type="logical" name="EVENONLY"> F  </i>
   <i type="int" name="LMAXFOCK">     0</i>
   <i type="int" name="NMAXFOCKAE">     0</i>
   <i type="logical" name="LFOCKAEDFT"> F  </i>
   <i name="HFSCREEN">      0.00000000</i>
   <i name="HFSCREENC">      0.00000000</i>
   <i type="int" name="NBANDSGWLOW">     0</i>
  </separator>
  <separator name="vdW DFT" >
   <i type="logical" name="LUSE_VDW"> T  </i>
   <i name="Zab_VDW">     -0.84910000</i>
   <i name="PARAM1">      0.12340000</i>
   <i name="PARAM2">      1.00000000</i>
   <i name="PARAM3">      0.00000000</i>
  </separator>
  <separator name="model GW" >
   <i type="int" name="MODEL_GW">     0</i>
   <i name="MODEL_EPS0">     34.34185355</i>
   <i name="MODEL_ALPHA">      1.00000000</i>
  </separator>
  <separator name="linear response parameters" >
   <i type="logical" name="LEPSILON"> F  </i>
   <i type="logical" name="LRPA"> F  </i>
   <i type="logical" name="LNABLA"> F  </i>
   <i type="logical" name="LVEL"> F  </i>
   <i type="int" name="KINTER">     0</i>
   <i name="CSHIFT">      0.10000000</i>
   <i name="OMEGAMAX">     -1.00000000</i>
   <i name="DEG_THRESHOLD">      0.00200000</i>
   <i name="RTIME">     -0.10000000</i>
   <i name="WPLASMAI">      0.00000000</i>
   <v name="DFIELD">      0.00000000      0.00000000      0.00000000</v>
   <v name="WPLASMA">      0.00000000      0.00000000      0.00000000      0.00000000      0.00000000      0.00000000      0.00000000      0.00000000      0.00000000</v>
  </separator>
  <separator name="orbital magnetization" >
   <i type="logical" name="NUCIND"> F  </i>
   <v name="MAGPOS">      0.00000000      0.00000000      0.00000000</v>
   <i type="logical" name="LNICSALL"> T  </i>
   <i type="logical" name="ORBITALMAG"> F  </i>
   <i type="logical" name="LMAGBLOCH"> F  </i>
   <i type="logical" name="LCHIMAG"> F  </i>
   <i type="logical" name="LGAUGE"> T  </i>
   <i type="int" name="MAGATOM">     0</i>
   <v name="MAGDIPOL">      0.00000000      0.00000000      0.00000000</v>
   <v name="AVECCONST">      0.00000000      0.00000000      0.00000000</v>
  </separator>
  <separator name="response functions" >
   <i type="logical" name="LADDER"> F  </i>
   <i type="logical" name="LRPAFORCE"> F  </i>
   <i type="logical" name="LFXC"> F  </i>
   <i type="logical" name="LHARTREE"> T  </i>
   <i type="int" name="IBSE">     0</i>
   <v type="int" name="KPOINT">    -1     0     0     0</v>
   <i type="logical" name="LTCTE"> F  </i>
   <i type="logical" name="LTETE"> F  </i>
   <i type="logical" name="LTRIPLET"> F  </i>
   <i type="logical" name="LFXCEPS"> F  </i>
   <i type="logical" name="LFXHEG"> F  </i>
   <i type="int" name="NATURALO">     2</i>
   <i type="logical" name="L2ORDER"> F  </i>
   <i type="logical" name="LMP2LT"> F  </i>
   <i type="logical" name="LUSEW"> F  </i>
   <i name="ENCUTGW">     -2.00000000</i>
   <i name="ENCUTGWSOFT">     -2.00000000</i>
   <i name="ENCUTLF">     -1.00000000</i>
   <i type="int" name="LMAXMP2">    -1</i>
   <i name="SCISSOR">      0.00000000</i>
   <i type="int" name="NOMEGA">     0</i>
   <i type="int" name="NOMEGAR">     0</i>
   <i type="int" name="NBANDSGW">    -1</i>
   <i type="int" name="NBANDSO">    -1</i>
   <i type="int" name="NBANDSV">    -1</i>
   <i type="int" name="NELM">     1</i>
   <i type="int" name="NELMHF">     1</i>
   <i type="int" name="DIM">     3</i>
   <i type="int" name="ANTIRES">     0</i>
   <i name="OMEGAMAX">    -30.00000000</i>
   <i name="OMEGAMIN">    -30.00000000</i>
   <i name="OMEGATL">   -200.00000000</i>
   <i type="int" name="OMEGAGRID">   140</i>
   <i name="CSHIFT">     -0.10000000</i>
   <i type="logical" name="SELFENERGY"> F  </i>
   <i type="logical" name="LSPECTRAL"> F  </i>
   <i type="logical" name="LSPECTRALGW"> F  </i>
   <i type="logical" name="LSINGLES"> F  </i>
   <i type="logical" name="LFERMIGW"> F  </i>
   <i type="logical" name="ODDONLYGW"> F  </i>
   <i type="logical" name="EVENONLYGW"> F  </i>
   <i type="int" name="NKREDLFX">     1</i>
   <i type="int" name="NKREDLFY">     1</i>
   <i type="int" name="NKREDLFZ">     1</i>
   <i type="int" name="MAXMEM">  2800</i>
   <i type="int" name="TELESCOPE">     0</i>
   <i type="int" name="TAUPAR">     1</i>
   <i type="int" name="OMEGAPAR">    -1</i>
   <i name="LAMBDA">      1.00000000</i>
  </separator>
  <separator name="External order field" >
   <i name="OFIELD_KAPPA">      0.00000000</i>
   <v name="OFIELD_K">      0.00000000      0.00000000      0.00000000</v>
   <i name="OFIELD_Q6_NEAR">      0.00000000</i>
   <i name="OFIELD_Q6_FAR">      0.00000000</i>
   <i name="OFIELD_A">      0.00000000</i>
  </separator>
 </parameters>
 <atominfo>
  <atoms>      13 </atoms>
  <types>       3 </types>
  <array name="atoms" >
   <dimension dim="1">ion</dimension>
   <field type="string">element</field>
   <field type="int">atomtype</field>
   <set>
    <rc><c>Te</c><c>   1</c></rc>
    <rc><c>Te</c><c>   1</c></rc>
    <rc><c>Te</c><c>   1</c></rc>
    <rc><c>Te</c><c>   1</c></rc>
    <rc><c>Te</c><c>   1</c></rc>
    <rc><c>Te</c><c>   1</c></rc>
    <rc><c>Te</c><c>   1</c></rc>
    <rc><c>Te</c><c>   1</c></rc>
    <rc><c>Mo</c><c>   2</c></rc>
    <rc><c>Mo</c><c>   2</c></rc>
    <rc><c>Mo</c><c>   2</c></rc>
    <rc><c>Mo</c><c>   2</c></rc>
    <rc><c>Li</c><c>   3</c></rc>
   </set>
  </array>
  <array name="atomtypes" >
   <dimension dim="1">type</dimension>
   <field type="int">atomspertype</field>
   <field type="string">element</field>
   <field>mass</field>
   <field>valence</field>
   <field type="string">pseudopotential</field>
   <set>
    <rc><c>   8</c><c>Te</c><c>    127.60000000</c><c>      6.00000000</c><c>  PAW_PBE Te 08Apr2002                  </c></rc>
    <rc><c>   4</c><c>Mo</c><c>     95.94000000</c><c>      6.00000000</c><c>  PAW_PBE Mo 08Apr2002                  </c></rc>
    <rc><c>   1</c><c>Li</c><c>      7.01000000</c><c>      1.00000000</c><c>  PAW_PBE Li 17Jan2003                  </c></rc>
   </set>
  </array>
 </atominfo>
 <structure name="initialpos" >
  <crystal>
   <varray name="basis" >
    <v>       3.50344967       0.00000000       0.00000000 </v>
    <v>       0.00000000       6.06808850       0.00000000 </v>
    <v>       0.00000000       0.00000000      35.00000000 </v>
   </varray>
   <i name="volume">    744.07349355 </i>
   <varray name="rec_basis" >
    <v>       0.28543296       0.00000000       0.00000000 </v>
    <v>       0.00000000       0.16479654       0.00000000 </v>
    <v>       0.00000000       0.00000000       0.02857143 </v>
   </varray>
  </crystal>
  <varray name="positions" >
   <v>       0.00000000       0.66666212       0.16114054 </v>
   <v>       0.00000000       0.66666230       0.05820024 </v>
   <v>       0.50000000       0.16666212       0.16114054 </v>
   <v>       0.50000000       0.16666230       0.05820024 </v>
   <v>       0.00000000       0.33333770       0.38027533 </v>
   <v>       0.00000000       0.33333788       0.27733503 </v>
   <v>       0.50000000       0.83333770       0.38027533 </v>
   <v>       0.50000000       0.83333788       0.27733503 </v>
   <v>       0.00000000       0.00000066       0.10961466 </v>
   <v>       0.50000000       0.50000066       0.10961466 </v>
   <v>       0.00000000       0.99999934       0.32886091 </v>
   <v>       0.50000000       0.49999934       0.32886091 </v>
   <v>       0.50000000       0.50000000       0.40000000 </v>
  </varray>
 </structure>
 <calculation>
  <scstep>
   <time name="dav">   10.10   10.11</time>
   <time name="total">   12.73   12.77</time>
   <energy>
    <i name="alphaZ">     48.55020401 </i>
    <i name="ewald">  20365.86593441 </i>
    <i name="hartreedc"> -22893.70915948 </i>
    <i name="XCdc">   -357.52759406 </i>
    <i name="pawpsdc">   2639.71816464 </i>
    <i name="pawaedc">  -2476.57733713 </i>
    <i name="eentropy">      0.00000000 </i>
    <i name="bandstr">    117.38751432 </i>
    <i name="atom">   2661.52855728 </i>
    <i name="e_fr_energy">    105.23628401 </i>
    <i name="e_wo_entrp">    105.23628401 </i>
    <i name="e_0_energy">    105.23628401 </i>
   </energy>
  </scstep>
  <scstep>
   <time name="dav">   12.50   12.50</time>
   <time name="total">   12.53   12.53</time>
   <energy>
    <i name="e_fr_energy">   -376.91048505 </i>
    <i name="e_wo_entrp">   -376.91048505 </i>
    <i name="e_0_energy">   -376.91048505 </i>
   </energy>
  </scstep>
  <scstep>
   <time name="dav">   11.31   11.34</time>
   <time name="total">   11.34   11.37</time>
   <energy>
    <i name="e_fr_energy">   -433.00972291 </i>
    <i name="e_wo_entrp">   -433.00972291 </i>
    <i name="e_0_energy">   -433.00972291 </i>
   </energy>
  </scstep>
  <scstep>
   <time name="dav">   13.56   13.56</time>
   <time name="total">   13.60   13.60</time>
   <energy>
    <i name="e_fr_energy">   -436.35491019 </i>
    <i name="e_wo_entrp">   -436.35491019 </i>
    <i name="e_0_energy">   -436.35491019 </i>
   </energy>
  </scstep>
  <scstep>
   <time name="dav">   13.20   13.23</time>
   <time name="total">   14.97   15.00</time>
   <energy>
    <i name="e_fr_energy">   -436.44137448 </i>
    <i name="e_wo_entrp">   -436.44137448 </i>
    <i name="e_0_energy">   -436.44137448 </i>
   </energy>
  </scstep>
  <scstep>
   <time name="dav">   12.42   12.41</time>
   <time name="total">   16.62   16.62</time>
   <energy>
    <i name="e_fr_energy">   -440.33752382 </i>
    <i name="e_wo_entrp">   -440.33752382 </i>
    <i name="e_0_energy">   -440.33752382 </i>
   </energy>
  </scstep>
  <scstep>
   <time name="dav">   12.86   12.90</time>
   <time name="total">   17.07   17.10</time>
   <energy>
    <i name="e_fr_energy">   -445.27351675 </i>
    <i name="e_wo_entrp">   -445.27351675 </i>
    <i name="e_0_energy">   -445.27351675 </i>
   </energy>
  </scstep>
  <scstep>
   <time name="dav">   13.28   13.30</time>
   <time name="total">   17.48   17.50</time>
   <energy>
    <i name="e_fr_energy">   -439.28500647 </i>
    <i name="e_wo_entrp">   -439.28500647 </i>
    <i name="e_0_energy">   -439.28500647 </i>
   </energy>
  </scstep>
  <scstep>
   <time name="dav">   12.14   12.17</time>
   <time name="total">   16.32   16.36</time>
   <energy>
    <i name="e_fr_energy">   -439.04768339 </i>
    <i name="e_wo_entrp">   -439.04768339 </i>
    <i name="e_0_energy">   -439.04768339 </i>
   </energy>
  </scstep>
  <scstep>
   <time name="dav">   11.57   11.57</time>
   <time name="total">   15.76   15.76</time>
   <energy>
    <i name="e_fr_energy">   -439.04060071 </i>
    <i name="e_wo_entrp">   -439.04060071 </i>
    <i name="e_0_energy">   -439.04060071 </i>
   </energy>
  </scstep>
  <scstep>
   <time name="dav">   12.99   13.03</time>
   <time name="total">   17.18   17.22</time>
   <energy>
    <i name="e_fr_energy">   -439.02460980 </i>
    <i name="e_wo_entrp">   -439.02460980 </i>
    <i name="e_0_energy">   -439.02460980 </i>
   </energy>
  </scstep>
  <scstep>
   <time name="dav">   11.47   11.47</time>
   <time name="total">   15.64   15.64</time>
   <energy>
    <i name="e_fr_energy">   -439.02244439 </i>
    <i name="e_wo_entrp">   -439.02244439 </i>
    <i name="e_0_energy">   -439.02244439 </i>
   </energy>
  </scstep>
  <scstep>
   <time name="dav">   12.52   12.55</time>
   <time name="total">   16.70   16.73</time>
   <energy>
    <i name="e_fr_energy">   -439.02172064 </i>
    <i name="e_wo_entrp">   -439.02172064 </i>
    <i name="e_0_energy">   -439.02172064 </i>
   </energy>
  </scstep>
  <scstep>
   <time name="dav">   11.57   11.57</time>
   <time name="total">   15.78   15.79</time>
   <energy>
    <i name="e_fr_energy">   -439.02159339 </i>
    <i name="e_wo_entrp">   -439.02159339 </i>
    <i name="e_0_energy">   -439.02159339 </i>
   </energy>
  </scstep>
  <scstep>
   <time name="dav">   12.67   12.70</time>
   <time name="total">   16.89   16.92</time>
   <energy>
    <i name="e_fr_energy">   -439.02160555 </i>
    <i name="e_wo_entrp">   -439.02160555 </i>
    <i name="e_0_energy">   -439.02160555 </i>
   </energy>
  </scstep>
  <scstep>
   <time name="dav">   12.55   12.55</time>
   <time name="total">   16.74   16.75</time>
   <energy>
    <i name="e_fr_energy">   -439.02108448 </i>
    <i name="e_wo_entrp">   -439.02108448 </i>
    <i name="e_0_energy">   -439.02108448 </i>
   </energy>
  </scstep>
  <scstep>
   <time name="dav">   10.60   10.60</time>
   <time name="total">   14.84   14.87</time>
   <energy>
    <i name="e_fr_energy">   -439.02109787 </i>
    <i name="e_wo_entrp">   -439.02109787 </i>
    <i name="e_0_energy">   -439.02109787 </i>
   </energy>
  </scstep>
  <scstep>
   <time name="dav">   11.58   11.58</time>
   <time name="total">   15.79   15.79</time>
   <energy>
    <i name="e_fr_energy">   -439.02177376 </i>
    <i name="e_wo_entrp">   -439.02177376 </i>
    <i name="e_0_energy">   -439.02177376 </i>
   </energy>
  </scstep>
  <scstep>
   <time name="dav">   11.00   11.00</time>
   <time name="total">   13.51   13.53</time>
   <energy>
    <i name="alphaZ">     48.55020401 </i>
    <i name="ewald">  20365.86593441 </i>
    <i name="hartreedc"> -22953.87015908 </i>
    <i name="XCdc">   -374.21688048 </i>
    <i name="pawpsdc">   5480.48023860 </i>
    <i name="pawaedc">  -5326.96340381 </i>
    <i name="eentropy">      0.00000000 </i>
    <i name="bandstr">   -340.39625961 </i>
    <i name="atom">   2661.52855728 </i>
    <i name="e_fr_energy">   -439.02176868 </i>
    <i name="e_wo_entrp">   -439.02176868 </i>
    <i name="e_0_energy">   -439.02176868 </i>
   </energy>
  </scstep>
  <structure>
   <crystal>
    <varray name="basis" >
     <v>       3.50344967       0.00000000       0.00000000 </v>
     <v>       0.00000000       6.06808850       0.00000000 </v>
     <v>       0.00000000       0.00000000      35.00000000 </v>
    </varray>
    <i name="volume">    744.07349355 </i>
    <varray name="rec_basis" >
     <v>       0.28543296       0.00000000       0.00000000 </v>
     <v>       0.00000000       0.16479654       0.00000000 </v>
     <v>       0.00000000       0.00000000       0.02857143 </v>
    </varray>
   </crystal>
   <varray name="positions" >
    <v>       0.00000000       0.66666212       0.16114054 </v>
    <v>       0.00000000       0.66666230       0.05820024 </v>
    <v>       0.50000000       0.16666212       0.16114054 </v>
    <v>       0.50000000       0.16666230       0.05820024 </v>
    <v>       0.00000000       0.33333770       0.38027533 </v>
    <v>       0.00000000       0.33333788       0.27733503 </v>
    <v>       0.50000000       0.83333770       0.38027533 </v>
    <v>       0.50000000       0.83333788       0.27733503 </v>
    <v>       0.00000000       0.00000066       0.10961466 </v>
    <v>       0.50000000       0.50000066       0.10961466 </v>
    <v>       0.00000000       0.99999934       0.32886091 </v>
    <v>       0.50000000       0.49999934       0.32886091 </v>
    <v>       0.50000000       0.50000000       0.40000000 </v>
   </varray>
  </structure>
  <varray name="forces" >
   <v>       0.00000000       0.00034273       0.00009225 </v>
   <v>       0.00000000      -0.00048909       0.04154848 </v>
   <v>       0.00000000      -0.00080206      -0.00346648 </v>
   <v>       0.00000000      -0.00150581       0.04305359 </v>
   <v>       0.00000000      -2.92528528      -1.36477762 </v>
   <v>       0.00000000       0.07997335      -0.29885671 </v>
   <v>       0.00000000       2.85295071      -0.80291807 </v>
   <v>       0.00000000      -0.05569029      -0.14632694 </v>
   <v>       0.00000000       0.00308265       0.02580255 </v>
   <v>       0.00000000      -0.00475976       0.03220180 </v>
   <v>       0.00000000      -0.38671526      -0.06340702 </v>
   <v>       0.00000000       0.42125908      -1.27198137 </v>
   <v>       0.00000000       0.01763905       3.80903551 </v>
  </varray>
  <varray name="stress" >
   <v>      18.24880775       0.00000000       0.00000000 </v>
   <v>       0.00000000      18.35103400      -0.22718903 </v>
   <v>       0.00000000      -0.22866948       9.46613809 </v>
  </varray>
  <energy>
   <i name="e_fr_energy">   -439.02176868 </i>
   <i name="e_wo_entrp">   -439.02176868 </i>
   <i name="e_0_energy">      0.00000000 </i>
  </energy>
  <time name="totalsc">  329.16  329.76</time>
  <eigenvalues>
   <array>
    <dimension dim="1">band</dimension>
    <dimension dim="2">kpoint</dimension>
    <dimension dim="3">spin</dimension>
    <field>eigene</field>
    <field>occ</field>
    <set>
     <set comment="spin 1">
      <set comment="kpoint 1">
       <r>  -13.6603    1.0000 </r>
       <r>  -13.1094    1.0000 </r>
       <r>  -12.5879    1.0000 </r>
       <r>  -12.1338    1.0000 </r>
       <r>  -11.7644    1.0000 </r>
       <r>  -11.0238    1.0000 </r>
       <r>  -10.9706    1.0000 </r>
       <r>  -10.6375    1.0000 </r>
       <r>   -6.2745    1.0000 </r>
       <r>   -5.7874    1.0000 </r>
       <r>   -5.6576    1.0000 </r>
       <r>   -5.2375    1.0000 </r>
       <r>   -5.1949    1.0000 </r>
       <r>   -4.7620    1.0000 </r>
       <r>   -4.0552    1.0000 </r>
       <r>   -3.5060    1.0000 </r>
       <r>   -3.0038    1.0000 </r>
       <r>   -2.7338    1.0000 </r>
       <r>   -2.4196    1.0000 </r>
       <r>   -2.3203    1.0000 </r>
       <r>   -2.0367    1.0000 </r>
       <r>   -1.9792    1.0000 </r>
       <r>   -1.8702    1.0000 </r>
       <r>   -1.7186    1.0000 </r>
       <r>   -1.6422    1.0000 </r>
       <r>   -1.5907    1.0000 </r>
       <r>   -1.4015    1.0000 </r>
       <r>   -1.2593    1.0000 </r>
       <r>   -1.2150    1.0000 </r>
       <r>   -1.0406    1.0000 </r>
       <r>   -0.8505    1.0000 </r>
       <r>   -0.8271    1.0000 </r>
       <r>   -0.7743    1.0000 </r>
       <r>   -0.7511    1.0000 </r>
       <r>   -0.3895    1.0000 </r>
       <r>   -0.1244    1.0000 </r>
       <r>    1.3306    0.0000 </r>
       <r>    1.5205    0.0000 </r>
       <r>    1.7282    0.0000 </r>
       <r>    2.0249    0.0000 </r>
       <r>    2.4954    0.0000 </r>
       <r>    2.5990    0.0000 </r>
       <r>    2.9786    0.0000 </r>
       <r>    3.1792    0.0000 </r>
      </set>
      <set comment="kpoint 2">
       <r>  -13.6094    1.0000 </r>
       <r>  -13.0542    1.0000 </r>
       <r>  -12.5482    1.0000 </r>
       <r>  -12.0934    1.0000 </r>
       <r>  -11.7387    1.0000 </r>
       <r>  -10.9980    1.0000 </r>
       <r>  -10.9420    1.0000 </r>
       <r>  -10.6142    1.0000 </r>
       <r>   -6.2164    1.0000 </r>
       <r>   -5.7298    1.0000 </r>
       <r>   -5.5938    1.0000 </r>
       <r>   -5.1900    1.0000 </r>
       <r>   -5.1724    1.0000 </r>
       <r>   -4.7444    1.0000 </r>
       <r>   -4.0409    1.0000 </r>
       <r>   -3.4839    1.0000 </r>
       <r>   -3.1110    1.0000 </r>
       <r>   -2.7645    1.0000 </r>
       <r>   -2.4532    1.0000 </r>
       <r>   -2.4160    1.0000 </r>
       <r>   -2.1852    1.0000 </r>
       <r>   -1.9407    1.0000 </r>
       <r>   -1.9299    1.0000 </r>
       <r>   -1.7706    1.0000 </r>
       <r>   -1.7667    1.0000 </r>
       <r>   -1.6296    1.0000 </r>
       <r>   -1.5432    1.0000 </r>
       <r>   -1.3289    1.0000 </r>
       <r>   -1.2762    1.0000 </r>
       <r>   -1.1632    1.0000 </r>
       <r>   -1.0569    1.0000 </r>
       <r>   -0.9012    1.0000 </r>
       <r>   -0.7149    1.0000 </r>
       <r>   -0.6868    1.0000 </r>
       <r>   -0.3827    1.0000 </r>
       <r>   -0.1222    1.0000 </r>
       <r>    1.3200    0.0000 </r>
       <r>    1.5919    0.0000 </r>
       <r>    1.7457    0.0000 </r>
       <r>    2.0669    0.0000 </r>
       <r>    2.2540    0.0000 </r>
       <r>    2.5576    0.0000 </r>
       <r>    2.8736    0.0000 </r>
       <r>    2.9517    0.0000 </r>
      </set>
      <set comment="kpoint 3">
       <r>  -13.5091    1.0000 </r>
       <r>  -12.9451    1.0000 </r>
       <r>  -12.4698    1.0000 </r>
       <r>  -12.0136    1.0000 </r>
       <r>  -11.6901    1.0000 </r>
       <r>  -10.9499    1.0000 </r>
       <r>  -10.8882    1.0000 </r>
       <r>  -10.5705    1.0000 </r>
       <r>   -6.1042    1.0000 </r>
       <r>   -5.6182    1.0000 </r>
       <r>   -5.4685    1.0000 </r>
       <r>   -5.1715    1.0000 </r>
       <r>   -5.0586    1.0000 </r>
       <r>   -4.7151    1.0000 </r>
       <r>   -4.0200    1.0000 </r>
       <r>   -3.4473    1.0000 </r>
       <r>   -3.2883    1.0000 </r>
       <r>   -2.8313    1.0000 </r>
       <r>   -2.6128    1.0000 </r>
       <r>   -2.5763    1.0000 </r>
       <r>   -2.4086    1.0000 </r>
       <r>   -2.0964    1.0000 </r>
       <r>   -2.0774    1.0000 </r>
       <r>   -2.0040    1.0000 </r>
       <r>   -1.8517    1.0000 </r>
       <r>   -1.6780    1.0000 </r>
       <r>   -1.6591    1.0000 </r>
       <r>   -1.5002    1.0000 </r>
       <r>   -1.4530    1.0000 </r>
       <r>   -1.3734    1.0000 </r>
       <r>   -1.0711    1.0000 </r>
       <r>   -1.0420    1.0000 </r>
       <r>   -0.6541    1.0000 </r>
       <r>   -0.6297    1.0000 </r>
       <r>   -0.3867    1.0000 </r>
       <r>   -0.1128    1.0000 </r>
       <r>    1.2950    0.0000 </r>
       <r>    1.6886    0.0000 </r>
       <r>    1.7383    0.0000 </r>
       <r>    1.9502    0.0000 </r>
       <r>    2.1673    0.0000 </r>
       <r>    2.3425    0.0000 </r>
       <r>    2.5350    0.0000 </r>
       <r>    2.5911    0.0000 </r>
      </set>
      <set comment="kpoint 4">
       <r>  -13.3624    1.0000 </r>
       <r>  -12.7847    1.0000 </r>
       <r>  -12.3543    1.0000 </r>
       <r>  -11.8965    1.0000 </r>
       <r>  -11.6251    1.0000 </r>
       <r>  -10.8860    1.0000 </r>
       <r>  -10.8162    1.0000 </r>
       <r>  -10.5127    1.0000 </r>
       <r>   -5.9478    1.0000 </r>
       <r>   -5.4615    1.0000 </r>
       <r>   -5.2869    1.0000 </r>
       <r>   -5.1561    1.0000 </r>
       <r>   -4.8927    1.0000 </r>
       <r>   -4.6857    1.0000 </r>
       <r>   -4.0129    1.0000 </r>
       <r>   -3.5026    1.0000 </r>
       <r>   -3.4093    1.0000 </r>
       <r>   -2.9716    1.0000 </r>
       <r>   -2.8901    1.0000 </r>
       <r>   -2.7988    1.0000 </r>
       <r>   -2.7505    1.0000 </r>
       <r>   -2.3260    1.0000 </r>
       <r>   -2.2911    1.0000 </r>
       <r>   -2.2697    1.0000 </r>
       <r>   -2.2376    1.0000 </r>
       <r>   -1.8545    1.0000 </r>
       <r>   -1.7080    1.0000 </r>
       <r>   -1.6780    1.0000 </r>
       <r>   -1.4304    1.0000 </r>
       <r>   -1.3352    1.0000 </r>
       <r>   -1.3252    1.0000 </r>
       <r>   -1.0517    1.0000 </r>
       <r>   -0.6132    1.0000 </r>
       <r>   -0.5845    1.0000 </r>
       <r>   -0.4252    1.0000 </r>
       <r>   -0.0823    1.0000 </r>
       <r>    1.2354    0.0000 </r>
       <r>    1.5758    0.0000 </r>
       <r>    1.6715    0.0000 </r>
       <r>    1.8584    0.0000 </r>
       <r>    2.0282    0.0000 </r>
       <r>    2.1796    0.0000 </r>
       <r>    2.2746    0.0000 </r>
       <r>    2.4565    0.0000 </r>
      </set>
      <set comment="kpoint 5">
       <r>  -13.1743    1.0000 </r>
       <r>  -12.5772    1.0000 </r>
       <r>  -12.2047    1.0000 </r>
       <r>  -11.7455    1.0000 </r>
       <r>  -11.5533    1.0000 </r>
       <r>  -10.8170    1.0000 </r>
       <r>  -10.7374    1.0000 </r>
       <r>  -10.4507    1.0000 </r>
       <r>   -5.7714    1.0000 </r>
       <r>   -5.2840    1.0000 </r>
       <r>   -5.1357    1.0000 </r>
       <r>   -5.0553    1.0000 </r>
       <r>   -4.6912    1.0000 </r>
       <r>   -4.6712    1.0000 </r>
       <r>   -4.0834    1.0000 </r>
       <r>   -3.6986    1.0000 </r>
       <r>   -3.4375    1.0000 </r>
       <r>   -3.2789    1.0000 </r>
       <r>   -3.1891    1.0000 </r>
       <r>   -3.0469    1.0000 </r>
       <r>   -2.9574    1.0000 </r>
       <r>   -2.7923    1.0000 </r>
       <r>   -2.7003    1.0000 </r>
       <r>   -2.5060    1.0000 </r>
       <r>   -2.3361    1.0000 </r>
       <r>   -2.1518    1.0000 </r>
       <r>   -1.7655    1.0000 </r>
       <r>   -1.7201    1.0000 </r>
       <r>   -1.6850    1.0000 </r>
       <r>   -1.3963    1.0000 </r>
       <r>   -1.2273    1.0000 </r>
       <r>   -1.0679    1.0000 </r>
       <r>   -0.6341    1.0000 </r>
       <r>   -0.5171    1.0000 </r>
       <r>   -0.4920    1.0000 </r>
       <r>   -0.0221    1.0000 </r>
       <r>    1.1378   -0.0484 </r>
       <r>    1.3133    0.0000 </r>
       <r>    1.5688    0.0000 </r>
       <r>    1.6571    0.0000 </r>
       <r>    1.8813    0.0000 </r>
       <r>    1.9930    0.0000 </r>
       <r>    2.1135    0.0000 </r>
       <r>    2.1272    0.0000 </r>
      </set>
      <set comment="kpoint 6">
       <r>  -12.9523    1.0000 </r>
       <r>  -12.3288    1.0000 </r>
       <r>  -12.0257    1.0000 </r>
       <r>  -11.5657    1.0000 </r>
       <r>  -11.4878    1.0000 </r>
       <r>  -10.7576    1.0000 </r>
       <r>  -10.6687    1.0000 </r>
       <r>  -10.3980    1.0000 </r>
       <r>   -5.6325    1.0000 </r>
       <r>   -5.1791    1.0000 </r>
       <r>   -5.0099    1.0000 </r>
       <r>   -4.8102    1.0000 </r>
       <r>   -4.6805    1.0000 </r>
       <r>   -4.4803    1.0000 </r>
       <r>   -4.3000    1.0000 </r>
       <r>   -3.8049    1.0000 </r>
       <r>   -3.6693    1.0000 </r>
       <r>   -3.6249    1.0000 </r>
       <r>   -3.4443    1.0000 </r>
       <r>   -3.2303    1.0000 </r>
       <r>   -3.0810    1.0000 </r>
       <r>   -3.0540    1.0000 </r>
       <r>   -3.0362    1.0000 </r>
       <r>   -2.7706    1.0000 </r>
       <r>   -2.6060    1.0000 </r>
       <r>   -2.3116    1.0000 </r>
       <r>   -2.0919    1.0000 </r>
       <r>   -1.8810    1.0000 </r>
       <r>   -1.7771    1.0000 </r>
       <r>   -1.3439    1.0000 </r>
       <r>   -1.2285    1.0000 </r>
       <r>   -1.0665    1.0000 </r>
       <r>   -0.6604    1.0000 </r>
       <r>   -0.5921    1.0000 </r>
       <r>   -0.4108    1.0000 </r>
       <r>    0.0553    1.0000 </r>
       <r>    1.0072    0.5486 </r>
       <r>    1.0980   -0.0395 </r>
       <r>    1.4580    0.0000 </r>
       <r>    1.4932    0.0000 </r>
       <r>    1.6669    0.0000 </r>
       <r>    1.7896    0.0000 </r>
       <r>    1.9149    0.0000 </r>
       <r>    2.0734    0.0000 </r>
      </set>
      <set comment="kpoint 7">
       <r>  -12.7071    1.0000 </r>
       <r>  -12.0484    1.0000 </r>
       <r>  -11.8249    1.0000 </r>
       <r>  -11.4442    1.0000 </r>
       <r>  -11.3628    1.0000 </r>
       <r>  -10.7260    1.0000 </r>
       <r>  -10.6317    1.0000 </r>
       <r>  -10.3704    1.0000 </r>
       <r>   -5.6042    1.0000 </r>
       <r>   -5.1362    1.0000 </r>
       <r>   -4.8420    1.0000 </r>
       <r>   -4.6995    1.0000 </r>
       <r>   -4.6554    1.0000 </r>
       <r>   -4.4570    1.0000 </r>
       <r>   -4.3274    1.0000 </r>
       <r>   -4.0448    1.0000 </r>
       <r>   -3.9082    1.0000 </r>
       <r>   -3.7834    1.0000 </r>
       <r>   -3.5142    1.0000 </r>
       <r>   -3.4773    1.0000 </r>
       <r>   -3.3887    1.0000 </r>
       <r>   -3.0902    1.0000 </r>
       <r>   -3.0830    1.0000 </r>
       <r>   -3.0641    1.0000 </r>
       <r>   -2.9229    1.0000 </r>
       <r>   -2.4555    1.0000 </r>
       <r>   -2.3567    1.0000 </r>
       <r>   -2.0590    1.0000 </r>
       <r>   -1.8120    1.0000 </r>
       <r>   -1.4612    1.0000 </r>
       <r>   -1.3711    1.0000 </r>
       <r>   -0.9899    1.0000 </r>
       <r>   -0.7733    1.0000 </r>
       <r>   -0.5220    1.0000 </r>
       <r>   -0.3510    1.0000 </r>
       <r>    0.1068    1.0000 </r>
       <r>    0.8478    1.0294 </r>
       <r>    1.0072    0.2346 </r>
       <r>    1.4022    0.0000 </r>
[...]
       <r>  -12.0406    1.0000 </r>
       <r>  -11.6526    1.0000 </r>
       <r>  -11.1350    1.0000 </r>
       <r>  -11.0974    1.0000 </r>
       <r>  -11.0382    1.0000 </r>
       <r>  -10.9928    1.0000 </r>
       <r>  -10.7275    1.0000 </r>
       <r>  -10.6501    1.0000 </r>
       <r>   -6.2217    1.0000 </r>
       <r>   -6.0681    1.0000 </r>
       <r>   -5.5529    1.0000 </r>
       <r>   -5.4637    1.0000 </r>
       <r>   -5.1386    1.0000 </r>
       <r>   -5.0319    1.0000 </r>
       <r>   -4.6979    1.0000 </r>
       <r>   -4.5997    1.0000 </r>
       <r>   -4.1811    1.0000 </r>
       <r>   -3.9912    1.0000 </r>
       <r>   -3.5328    1.0000 </r>
       <r>   -3.4972    1.0000 </r>
       <r>   -3.0552    1.0000 </r>
       <r>   -2.8406    1.0000 </r>
       <r>   -2.4151    1.0000 </r>
       <r>   -2.3867    1.0000 </r>
       <r>   -2.3052    1.0000 </r>
       <r>   -2.2621    1.0000 </r>
       <r>   -1.7289    1.0000 </r>
       <r>   -1.7097    1.0000 </r>
       <r>   -1.5168    1.0000 </r>
       <r>   -1.3190    1.0000 </r>
       <r>   -1.0825    1.0000 </r>
       <r>   -0.8912    1.0000 </r>
       <r>   -0.8545    1.0000 </r>
       <r>   -0.6613    1.0000 </r>
       <r>   -0.1879    1.0000 </r>
       <r>   -0.1416    1.0000 </r>
       <r>    1.3077    0.0000 </r>
       <r>    1.3515    0.0000 </r>
       <r>    1.3846    0.0000 </r>
       <r>    1.5868    0.0000 </r>
       <r>    1.7466    0.0000 </r>
       <r>    1.7685    0.0000 </r>
       <r>    1.9310    0.0000 </r>
       <r>    2.0199    0.0000 </r>
      </set>
      <set comment="kpoint 50">
       <r>  -11.9773    1.0000 </r>
       <r>  -11.5779    1.0000 </r>
       <r>  -11.0338    1.0000 </r>
       <r>  -10.9994    1.0000 </r>
       <r>  -10.9842    1.0000 </r>
       <r>  -10.9462    1.0000 </r>
       <r>  -10.6476    1.0000 </r>
       <r>  -10.6209    1.0000 </r>
       <r>   -6.3256    1.0000 </r>
       <r>   -6.2594    1.0000 </r>
       <r>   -5.6773    1.0000 </r>
       <r>   -5.6458    1.0000 </r>
       <r>   -5.2231    1.0000 </r>
       <r>   -5.1807    1.0000 </r>
       <r>   -4.7833    1.0000 </r>
       <r>   -4.7492    1.0000 </r>
       <r>   -4.1647    1.0000 </r>
       <r>   -3.9761    1.0000 </r>
       <r>   -3.5102    1.0000 </r>
       <r>   -3.4994    1.0000 </r>
       <r>   -3.0600    1.0000 </r>
       <r>   -2.8410    1.0000 </r>
       <r>   -2.4477    1.0000 </r>
       <r>   -2.3466    1.0000 </r>
       <r>   -2.3060    1.0000 </r>
       <r>   -2.2967    1.0000 </r>
       <r>   -1.7283    1.0000 </r>
       <r>   -1.7261    1.0000 </r>
       <r>   -1.3726    1.0000 </r>
       <r>   -1.2530    1.0000 </r>
       <r>   -0.9123    1.0000 </r>
       <r>   -0.8566    1.0000 </r>
       <r>   -0.8155    1.0000 </r>
       <r>   -0.6477    1.0000 </r>
       <r>   -0.1300    1.0000 </r>
       <r>   -0.1151    1.0000 </r>
       <r>    1.3044    0.0000 </r>
       <r>    1.3881    0.0000 </r>
       <r>    1.4755    0.0000 </r>
       <r>    1.5984    0.0000 </r>
       <r>    1.7278    0.0000 </r>
       <r>    1.7294    0.0000 </r>
       <r>    2.0123    0.0000 </r>
       <r>    2.0471    0.0000 </r>
      </set>
     </set>
    </set>
   </array>
  </eigenvalues>
  <separator name="orbital magnetization" >
   <v name="MAGDIPOLOUT">      0.00000000      0.00000000      0.00000000</v>
  </separator>
  <dos>
   <i name="efermi">      1.01161606 </i>
   <total>
    <array>
     <dimension dim="1">gridpoints</dimension>
     <dimension dim="2">spin</dimension>
     <field>energy</field>
     <field>total</field>
     <field>integrated</field>
     <set>
      <set comment="spin 1">
       <r>   -14.5023     0.0000     0.0000 </r>
       <r>   -14.4405     0.0000     0.0000 </r>
       <r>   -14.3788     0.0000     0.0000 </r>
       <r>   -14.3170     0.0000     0.0000 </r>
       <r>   -14.2553     0.0000     0.0000 </r>
       <r>   -14.1936     0.0000     0.0000 </r>
       <r>   -14.1318     0.0000     0.0000 </r>
       <r>   -14.0701     0.0000     0.0000 </r>
       <r>   -14.0083     0.0000     0.0000 </r>
       <r>   -13.9466     0.0000     0.0000 </r>
       <r>   -13.8848     0.0000     0.0000 </r>
       <r>   -13.8231     0.0000     0.0000 </r>
       <r>   -13.7613     0.0000     0.0000 </r>
       <r>   -13.6996     0.0000     0.0000 </r>
       <r>   -13.6379     0.9476     0.0284 </r>
       <r>   -13.5761     1.0460     0.0963 </r>
       <r>   -13.5144     1.1387     0.1624 </r>
       <r>   -13.4526     1.0988     0.2316 </r>
       <r>   -13.3909     1.1264     0.2997 </r>
       <r>   -13.3291     1.1373     0.3700 </r>
       <r>   -13.2674     1.1877     0.4414 </r>
       <r>   -13.2056     1.1921     0.5142 </r>
       <r>   -13.1439     1.2100     0.5884 </r>
       <r>   -13.0821     2.1517     0.6951 </r>
       <r>   -13.0204     2.5802     0.8515 </r>
       <r>   -12.9587     2.2929     0.9995 </r>
       <r>   -12.8969     2.1544     1.1375 </r>
       <r>   -12.8352     2.0650     1.2665 </r>
       <r>   -12.7734     2.0357     1.3943 </r>
       <r>   -12.7117     2.0325     1.5197 </r>
       <r>   -12.6499     2.7358     1.7323 </r>
       <r>   -12.5882     2.3964     1.8861 </r>
       <r>   -12.5264     3.4633     2.1145 </r>
       <r>   -12.4647     3.4845     2.3291 </r>
       <r>   -12.4030     5.4232     2.6402 </r>
       <r>   -12.3412     4.0361     2.9179 </r>
       <r>   -12.2795     3.6388     3.1512 </r>
       <r>   -12.2177     4.2509     3.3880 </r>
       <r>   -12.1560     4.7902     3.6656 </r>
       <r>   -12.0942     7.9239     4.0601 </r>
       <r>   -12.0325     7.2818     4.5502 </r>
       <r>   -11.9707     5.0295     4.9687 </r>
       <r>   -11.9090     5.7719     5.3016 </r>
       <r>   -11.8473     6.0002     5.6656 </r>
       <r>   -11.7855     6.8719     6.0937 </r>
       <r>   -11.7238     6.6824     6.5443 </r>
       <r>   -11.6620     6.7467     6.9538 </r>
       <r>   -11.6003     9.7139     7.4475 </r>
       <r>   -11.5385     6.2388     8.1236 </r>
       <r>   -11.4768     5.8742     8.4965 </r>
       <r>   -11.4150     5.5143     8.8834 </r>
       <r>   -11.3533     6.1086     9.2664 </r>
       <r>   -11.2916     6.1614     9.6482 </r>
       <r>   -11.2298     6.5159    10.0377 </r>
       <r>   -11.1681     6.9006    10.4516 </r>
       <r>   -11.1063     9.0560    10.9684 </r>
       <r>   -11.0446     8.4039    11.4928 </r>
       <r>   -10.9828    10.9675    12.0648 </r>
       <r>   -10.9211    10.2827    12.7871 </r>
       <r>   -10.8593     7.2439    13.3734 </r>
       <r>   -10.7976     7.1268    13.8080 </r>
       <r>   -10.7358    12.0126    14.3205 </r>
       <r>   -10.6741     5.8689    14.7598 </r>
       <r>   -10.6124     4.5386    15.1317 </r>
       <r>   -10.5506     3.8647    15.4536 </r>
       <r>   -10.4889     3.1622    15.6689 </r>
       <r>   -10.4271     2.9354    15.8514 </r>
       <r>   -10.3654     0.0000    16.0000 </r>
       <r>   -10.3036     0.0000    16.0000 </r>
       <r>   -10.2419     0.0000    16.0000 </r>
       <r>   -10.1801     0.0000    16.0000 </r>
       <r>   -10.1184     0.0000    16.0000 </r>
       <r>   -10.0567     0.0000    16.0000 </r>
       <r>    -9.9949     0.0000    16.0000 </r>
       <r>    -9.9332     0.0000    16.0000 </r>
       <r>    -9.8714     0.0000    16.0000 </r>
       <r>    -9.8097     0.0000    16.0000 </r>
       <r>    -9.7479     0.0000    16.0000 </r>
       <r>    -9.6862     0.0000    16.0000 </r>
       <r>    -9.6244     0.0000    16.0000 </r>
       <r>    -9.5627     0.0000    16.0000 </r>
       <r>    -9.5010     0.0000    16.0000 </r>
       <r>    -9.4392     0.0000    16.0000 </r>
       <r>    -9.3775     0.0000    16.0000 </r>
       <r>    -9.3157     0.0000    16.0000 </r>
       <r>    -9.2540     0.0000    16.0000 </r>
       <r>    -9.1922     0.0000    16.0000 </r>
       <r>    -9.1305     0.0000    16.0000 </r>
       <r>    -9.0687     0.0000    16.0000 </r>
       <r>    -9.0070     0.0000    16.0000 </r>
       <r>    -8.9453     0.0000    16.0000 </r>
       <r>    -8.8835     0.0000    16.0000 </r>
       <r>    -8.8218     0.0000    16.0000 </r>
       <r>    -8.7600     0.0000    16.0000 </r>
       <r>    -8.6983     0.0000    16.0000 </r>
       <r>    -8.6365     0.0000    16.0000 </r>
       <r>    -8.5748     0.0000    16.0000 </r>
       <r>    -8.5130     0.0000    16.0000 </r>
       <r>    -8.4513     0.0000    16.0000 </r>
       <r>    -8.3895     0.0000    16.0000 </r>
       <r>    -8.3278     0.0000    16.0000 </r>
       <r>    -8.2661     0.0000    16.0000 </r>
       <r>    -8.2043     0.0000    16.0000 </r>
       <r>    -8.1426     0.0000    16.0000 </r>
       <r>    -8.0808     0.0000    16.0000 </r>
       <r>    -8.0191     0.0000    16.0000 </r>
       <r>    -7.9573     0.0000    16.0000 </r>
       <r>    -7.8956     0.0000    16.0000 </r>
       <r>    -7.8338     0.0000    16.0000 </r>
       <r>    -7.7721     0.0000    16.0000 </r>
       <r>    -7.7104     0.0000    16.0000 </r>
       <r>    -7.6486     0.0000    16.0000 </r>
       <r>    -7.5869     0.0000    16.0000 </r>
       <r>    -7.5251     0.0000    16.0000 </r>
       <r>    -7.4634     0.0000    16.0000 </r>
       <r>    -7.4016     0.0000    16.0000 </r>
       <r>    -7.3399     0.0000    16.0000 </r>
       <r>    -7.2781     0.0000    16.0000 </r>
       <r>    -7.2164     0.0000    16.0000 </r>
       <r>    -7.1547     0.0000    16.0000 </r>
       <r>    -7.0929     0.0000    16.0000 </r>
       <r>    -7.0312     0.0000    16.0000 </r>
       <r>    -6.9694     0.0000    16.0000 </r>
       <r>    -6.9077     0.0000    16.0000 </r>
       <r>    -6.8459     0.0000    16.0000 </r>
       <r>    -6.7842     0.0000    16.0000 </r>
       <r>    -6.7224     0.0000    16.0000 </r>
       <r>    -6.6607     0.0000    16.0000 </r>
       <r>    -6.5990     0.0000    16.0000 </r>
       <r>    -6.5372     0.0000    16.0000 </r>
       <r>    -6.4755     0.0000    16.0000 </r>
       <r>    -6.4137     0.0000    16.0000 </r>
       <r>    -6.3520     0.0000    16.0000 </r>
       <r>    -6.2902     0.6059    16.0282 </r>
       <r>    -6.2285     1.7445    16.1258 </r>
       <r>    -6.1667     1.5797    16.2239 </r>
       <r>    -6.1050     1.8229    16.3304 </r>
       <r>    -6.0432     1.8875    16.4446 </r>
       <r>    -5.9815     1.9118    16.5635 </r>
       <r>    -5.9198     1.9954    16.6835 </r>
       <r>    -5.8580     2.2933    16.8138 </r>
       <r>    -5.7963     2.4858    16.9614 </r>
       <r>    -5.7345     4.0115    17.1829 </r>
       <r>    -5.6728     4.3242    17.4647 </r>
       <r>    -5.6110     6.3200    17.8439 </r>
       <r>    -5.5493     4.4471    18.1287 </r>
       <r>    -5.4875     4.2316    18.3917 </r>
       <r>    -5.4258     4.1684    18.6491 </r>
       <r>    -5.3641     4.2281    18.9090 </r>
       <r>    -5.3023     4.5559    19.1823 </r>
       <r>    -5.2406     5.1295    19.4902 </r>
       <r>    -5.1788    11.4969    20.0141 </r>
       <r>    -5.1171     9.6565    20.7299 </r>
       <r>    -5.0553     9.5594    21.3426 </r>
       <r>    -4.9936    10.3734    21.9535 </r>
       <r>    -4.9318     8.9788    22.5759 </r>
       <r>    -4.8701     8.9933    23.1810 </r>
       <r>    -4.8084     7.8498    23.7123 </r>
       <r>    -4.7466     9.0742    24.1819 </r>
       <r>    -4.6849    14.1299    24.7889 </r>
       <r>    -4.6231     9.0455    25.4900 </r>
       <r>    -4.5614     8.1064    26.0052 </r>
       <r>    -4.4996     8.4832    26.5336 </r>
       <r>    -4.4379    10.2892    27.1439 </r>
       <r>    -4.3761     7.5194    27.7144 </r>
       <r>    -4.3144     7.1369    28.2204 </r>
       <r>    -4.2527     5.6437    28.5805 </r>
       <r>    -4.1909     7.1000    29.0105 </r>
       <r>    -4.1292     7.2758    29.6348 </r>
       <r>    -4.0674     9.3408    30.1420 </r>
       <r>    -4.0057     8.8494    30.7997 </r>
       <r>    -3.9439     7.3970    31.3659 </r>
       <r>    -3.8822     4.6219    31.7236 </r>
       <r>    -3.8204     6.0782    32.0160 </r>
       <r>    -3.7587     4.2756    32.3230 </r>
       <r>    -3.6969     6.7175    32.6331 </r>
       <r>    -3.6352     9.0478    33.1369 </r>
       <r>    -3.5735    10.0534    33.7690 </r>
       <r>    -3.5117    18.7069    34.5585 </r>
       <r>    -3.4500    14.8684    35.8331 </r>
       <r>    -3.3882     8.6759    36.5509 </r>
       <r>    -3.3265     9.3072    37.1070 </r>
       <r>    -3.2647    18.3786    37.7534 </r>
       <r>    -3.2030     9.0345    38.3760 </r>
       <r>    -3.1412     9.0113    38.9219 </r>
       <r>    -3.0795     9.8948    39.4814 </r>
       <r>    -3.0178    10.8721    40.2479 </r>
       <r>    -2.9560    10.0349    40.9341 </r>
       <r>    -2.8943    11.8994    41.6561 </r>
       <r>    -2.8325    11.8465    42.4930 </r>
       <r>    -2.7708     9.7138    43.1750 </r>
       <r>    -2.7090     9.1517    43.7486 </r>
       <r>    -2.6473     7.9601    44.2689 </r>
       <r>    -2.5855     8.0251    44.7691 </r>
       <r>    -2.5238     8.4000    45.2750 </r>
       <r>    -2.4621    11.0001    45.8585 </r>
       <r>    -2.4003    10.3410    46.6656 </r>
       <r>    -2.3386    10.3701    47.3902 </r>
       <r>    -2.2768    14.4099    48.2958 </r>
       <r>    -2.2151     9.7750    48.9500 </r>
       <r>    -2.1533    10.3254    49.5750 </r>
       <r>    -2.0916     8.8801    50.2194 </r>
       <r>    -2.0298    10.1894    50.7821 </r>
       <r>    -1.9681    11.1053    51.3797 </r>
       <r>    -1.9063    13.2880    52.0774 </r>
       <r>    -1.8446    10.1794    52.7575 </r>
       <r>    -1.7829    11.6250    53.4700 </r>
       <r>    -1.7211    17.2095    54.2893 </r>
       <r>    -1.6594    11.4890    55.1448 </r>
       <r>    -1.5976    13.4358    55.8830 </r>
       <r>    -1.5359    11.4943    56.7047 </r>
       <r>    -1.4741    12.3943    57.4625 </r>
       <r>    -1.4124    15.3555    58.2290 </r>
       <r>    -1.3506    15.1768    59.2771 </r>
       <r>    -1.2889    10.3450    60.0024 </r>
       <r>    -1.2272    14.5652    60.8313 </r>
       <r>    -1.1654     6.1282    61.4905 </r>
       <r>    -1.1037    11.1114    62.0413 </r>
       <r>    -1.0419    12.6280    63.0558 </r>
       <r>    -0.9802     8.1949    63.6860 </r>
       <r>    -0.9184     8.3721    64.2087 </r>
       <r>    -0.8567    11.9703    64.8284 </r>
       <r>    -0.7949     8.8647    65.4357 </r>
       <r>    -0.7332     8.9732    66.0749 </r>
       <r>    -0.6715    12.3132    66.6948 </r>
       <r>    -0.6097    11.7242    67.6283 </r>
       <r>    -0.5480     9.1551    68.2889 </r>
       <r>    -0.4862     7.5680    68.7637 </r>
       <r>    -0.4245     7.5275    69.2190 </r>
       <r>    -0.3627     6.0582    69.8123 </r>
       <r>    -0.3010     4.9171    70.1168 </r>
       <r>    -0.2392     6.1912    70.4627 </r>
       <r>    -0.1775     6.0772    70.8155 </r>
       <r>    -0.1158    24.8217    71.3860 </r>
       <r>    -0.0540     2.9466    71.6908 </r>
       <r>     0.0077     2.0032    71.8424 </r>
       <r>     0.0695     1.3954    71.9467 </r>
       <r>     0.1312     0.0000    72.0000 </r>
       <r>     0.1930     0.0000    72.0000 </r>
       <r>     0.2547     0.0000    72.0000 </r>
       <r>     0.3165     0.0000    72.0000 </r>
       <r>     0.3782     0.0000    72.0000 </r>
       <r>     0.4400     0.0000    72.0000 </r>
       <r>     0.5017     0.0000    72.0000 </r>
       <r>     0.5634     0.0000    72.0000 </r>
       <r>     0.6252     0.0000    72.0000 </r>
       <r>     0.6869     0.0000    72.0000 </r>
       <r>     0.7487     0.0000    72.0000 </r>
       <r>     0.8104     2.6356    72.0825 </r>
       <r>     0.8722     3.1925    72.2774 </r>
       <r>     0.9339     4.8981    72.5361 </r>
       <r>     0.9957     6.5953    72.8816 </r>
       <r>     1.0574     7.1489    73.3887 </r>
       <r>     1.1191     6.9713    73.8130 </r>
       <r>     1.1809     8.7209    74.2972 </r>
       <r>     1.2426     6.4182    74.7570 </r>
       <r>     1.3044     6.3292    75.1426 </r>
       <r>     1.3661     3.9792    75.4861 </r>
       <r>     1.4279    12.0388    75.9528 </r>
       <r>     1.4896    15.0160    76.8495 </r>
       <r>     1.5514    11.2832    77.6176 </r>
       <r>     1.6131    18.6276    78.5778 </r>
       <r>     1.6748    21.9696    79.9509 </r>
       <r>     1.7366    27.9053    81.0792 </r>
       <r>     1.7983     6.9100    82.0751 </r>
       <r>     1.8601     7.7548    82.4610 </r>
       <r>     1.9218    14.6409    83.0793 </r>
       <r>     1.9836    22.4411    84.0499 </r>
       <r>     2.0453    18.0764    85.1528 </r>
       <r>     2.1071    12.1557    86.0601 </r>
       <r>     2.1688     4.4995    86.5306 </r>
       <r>     2.2305     3.5861    86.7841 </r>
       <r>     2.2923     2.5391    86.9683 </r>
       <r>     2.3540     2.2046    87.1152 </r>
       <r>     2.4158     2.0659    87.2495 </r>
       <r>     2.4775     1.9913    87.3739 </r>
       <r>     2.5393     1.7378    87.4973 </r>
       <r>     2.6010     0.8608    87.6167 </r>
       <r>     2.6628     0.8504    87.6695 </r>
       <r>     2.7245     0.8230    87.7218 </r>
       <r>     2.7863     0.7732    87.7711 </r>
       <r>     2.8480     0.7529    87.8180 </r>
       <r>     2.9097     0.9285    87.8753 </r>
       <r>     2.9715     0.7051    87.9255 </r>
       <r>     3.0332     0.2832    87.9571 </r>
       <r>     3.0950     0.2343    87.9731 </r>
       <r>     3.1567     0.1854    87.9860 </r>
       <r>     3.2185     0.0000    88.0000 </r>
       <r>     3.2802     0.0000    88.0000 </r>
       <r>     3.3420     0.0000    88.0000 </r>
       <r>     3.4037     0.0000    88.0000 </r>
       <r>     3.4654     0.0000    88.0000 </r>
       <r>     3.5272     0.0000    88.0000 </r>
       <r>     3.5889     0.0000    88.0000 </r>
       <r>     3.6507     0.0000    88.0000 </r>
       <r>     3.7124     0.0000    88.0000 </r>
       <r>     3.7742     0.0000    88.0000 </r>
       <r>     3.8359     0.0000    88.0000 </r>
       <r>     3.8977     0.0000    88.0000 </r>
       <r>     3.9594     0.0000    88.0000 </r>
       <r>     4.0211     0.0000    88.0000 </r>
      </set>
     </set>
    </array>
   </total>
  </dos>
 </calculation>
 <structure name="finalpos" >
  <crystal>
   <varray name="basis" >
    <v>       3.50344967       0.00000000       0.00000000 </v>
    <v>       0.00000000       6.06808850       0.00000000 </v>
    <v>       0.00000000       0.00000000      35.00000000 </v>
   </varray>
   <i name="volume">    744.07349355 </i>
   <varray name="rec_basis" >
    <v>       0.28543296       0.00000000       0.00000000 </v>
    <v>       0.00000000       0.16479654       0.00000000 </v>
    <v>       0.00000000       0.00000000       0.02857143 </v>
   </varray>
  </crystal>
  <varray name="positions" >
   <v>       0.00000000       0.66666212       0.16114054 </v>
   <v>       0.00000000       0.66666230       0.05820024 </v>
   <v>       0.50000000       0.16666212       0.16114054 </v>
   <v>       0.50000000       0.16666230       0.05820024 </v>
   <v>       0.00000000       0.33333770       0.38027533 </v>
   <v>       0.00000000       0.33333788       0.27733503 </v>
   <v>       0.50000000       0.83333770       0.38027533 </v>
   <v>       0.50000000       0.83333788       0.27733503 </v>
   <v>       0.00000000       0.00000066       0.10961466 </v>
   <v>       0.50000000       0.50000066       0.10961466 </v>
   <v>       0.00000000       0.99999934       0.32886091 </v>
   <v>       0.50000000       0.49999934       0.32886091 </v>
   <v>       0.50000000       0.50000000       0.40000000 </v>
  </varray>
 </structure>
</modeling>
