<?xml version="1.0" encoding="ISO-8859-1"?>
<modeling>
 <generator>
  <i name="program" type="string">vasp </i>
  <i name="version" type="string">5.4.4.18Apr17-6-g9f103f2a35  </i>
  <i name="subversion" type="string">(build Nov 26 2018 16:29:41) complex            parallel </i>
  <i name="platform" type="string">LinuxIFC </i>
  <i name="date" type="string">2019 10 22 </i>
  <i name="time" type="string">14:47:01 </i>
 </generator>
 <incar>
  <i type="string" name="SYSTEM"> MoTe2</i>
  <i type="string" name="PREC">accurate</i>
  <i type="string" name="ALGO"> Normal</i>
  <i type="int" name="IBRION">    -1</i>
  <i name="EDIFF">      0.00010000</i>
  <i type="int" name="ISYM">     2</i>
  <i name="ENCUT">    400.00000000</i>
  <i name="POTIM">      0.50000000</i>
  <i type="logical" name="LREAL"> F  </i>
  <i type="int" name="ISMEAR">    -5</i>
  <i name="SIGMA">      0.05000000</i>
  <i type="int" name="NWRITE">     1</i>
  <i type="logical" name="LWAVE"> F  </i>
  <i type="logical" name="LCHARG"> T  </i>
  <i type="logical" name="LVTOT"> T  </i>
  <i type="logical" name="LASPH"> T  </i>
  <v type="int" name="KPOINT_BSE">    -1     0     0     0</v>
  <i type="logical" name="LUSE_VDW"> T  </i>
  <i name="BPARAM">     15.70000000</i>
  <i type="string" name="METAGGA"> SCAN</i>
  <i type="logical" name="LASPH"> T  </i>
 </incar>
 <structure name="primitive_cell" >
  <crystal>
   <varray name="basis" >
    <v>       3.50344967       0.00000000       0.00000000 </v>
    <v>       0.00000000       6.06808850       0.00000000 </v>
    <v>       0.00000000       0.00000000      35.00000000 </v>
   </varray>
   <i name="volume">    744.07349355 </i>
   <varray name="rec_basis" >
    <v>       0.28543296       0.00000000       0.00000000 </v>
    <v>       0.00000000       0.16479654       0.00000000 </v>
    <v>       0.00000000       0.00000000       0.02857143 </v>
   </varray>
  </crystal>
  <varray name="positions" >
   <v>       0.00000000      -0.33333788       0.16114054 </v>
   <v>      -0.50000000      -0.49999934       0.10961466 </v>
   <v>       0.00000000       0.00000066       0.10961466 </v>
   <v>      -0.50000000       0.16666212       0.16114054 </v>
   <v>       0.00000000      -0.33333770       0.05820024 </v>
   <v>       0.00000000       0.33333788       0.27733503 </v>
   <v>      -0.50000000      -0.16666212       0.27733503 </v>
   <v>      -0.50000000       0.16666230       0.05820024 </v>
   <v>      -0.50000000       0.49999934       0.32886091 </v>
   <v>       0.00000000      -0.00000066       0.32886091 </v>
   <v>       0.00000000       0.33333770       0.38027533 </v>
   <v>      -0.50000000      -0.16666230       0.38027533 </v>
   <v>      -0.50000000      -0.50000000       0.45000000 </v>
  </varray>
 </structure>
 <varray name="primitive_index" >
  <v type="int" >        1 </v>
  <v type="int" >       10 </v>
  <v type="int" >        9 </v>
  <v type="int" >        3 </v>
  <v type="int" >        2 </v>
  <v type="int" >        6 </v>
  <v type="int" >        8 </v>
  <v type="int" >        4 </v>
  <v type="int" >       12 </v>
  <v type="int" >       11 </v>
  <v type="int" >        5 </v>
  <v type="int" >        7 </v>
  <v type="int" >       13 </v>
 </varray>
 <kpoints>
  <generation param="Monkhorst-Pack">
   <v type="int" name="divisions">      20       10        1 </v>
   <v name="usershift">      0.00000000       0.00000000       0.00000000 </v>
   <v name="genvec1">      0.05000000       0.00000000       0.00000000 </v>
   <v name="genvec2">      0.00000000       0.10000000       0.00000000 </v>
   <v name="genvec3">      0.00000000       0.00000000       1.00000000 </v>
   <v name="shift">      0.50000000       0.50000000       0.00000000 </v>
  </generation>
  <varray name="kpointlist" >
   <v>       0.02500000       0.05000000       0.00000000 </v>
   <v>       0.07500000       0.05000000       0.00000000 </v>
   <v>       0.12500000       0.05000000       0.00000000 </v>
   <v>       0.17500000       0.05000000       0.00000000 </v>
   <v>       0.22500000       0.05000000       0.00000000 </v>
   <v>       0.27500000       0.05000000       0.00000000 </v>
   <v>       0.32500000       0.05000000       0.00000000 </v>
   <v>       0.37500000       0.05000000       0.00000000 </v>
   <v>       0.42500000       0.05000000       0.00000000 </v>
   <v>       0.47500000       0.05000000       0.00000000 </v>
   <v>       0.02500000       0.15000000       0.00000000 </v>
   <v>       0.07500000       0.15000000       0.00000000 </v>
   <v>       0.12500000       0.15000000       0.00000000 </v>
   <v>       0.17500000       0.15000000       0.00000000 </v>
   <v>       0.22500000       0.15000000       0.00000000 </v>
   <v>       0.27500000       0.15000000       0.00000000 </v>
   <v>       0.32500000       0.15000000       0.00000000 </v>
   <v>       0.37500000       0.15000000       0.00000000 </v>
   <v>       0.42500000       0.15000000       0.00000000 </v>
   <v>       0.47500000       0.15000000       0.00000000 </v>
   <v>       0.02500000       0.25000000       0.00000000 </v>
   <v>       0.07500000       0.25000000       0.00000000 </v>
   <v>       0.12500000       0.25000000       0.00000000 </v>
   <v>       0.17500000       0.25000000       0.00000000 </v>
   <v>       0.22500000       0.25000000       0.00000000 </v>
   <v>       0.27500000       0.25000000       0.00000000 </v>
   <v>       0.32500000       0.25000000       0.00000000 </v>
   <v>       0.37500000       0.25000000       0.00000000 </v>
   <v>       0.42500000       0.25000000       0.00000000 </v>
   <v>       0.47500000       0.25000000       0.00000000 </v>
   <v>       0.02500000       0.35000000       0.00000000 </v>
   <v>       0.07500000       0.35000000       0.00000000 </v>
   <v>       0.12500000       0.35000000       0.00000000 </v>
   <v>       0.17500000       0.35000000       0.00000000 </v>
   <v>       0.22500000       0.35000000       0.00000000 </v>
   <v>       0.27500000       0.35000000       0.00000000 </v>
   <v>       0.32500000       0.35000000       0.00000000 </v>
   <v>       0.37500000       0.35000000       0.00000000 </v>
   <v>       0.42500000       0.35000000       0.00000000 </v>
   <v>       0.47500000       0.35000000       0.00000000 </v>
   <v>       0.02500000       0.45000000       0.00000000 </v>
   <v>       0.07500000       0.45000000       0.00000000 </v>
   <v>       0.12500000       0.45000000       0.00000000 </v>
   <v>       0.17500000       0.45000000       0.00000000 </v>
   <v>       0.22500000       0.45000000       0.00000000 </v>
   <v>       0.27500000       0.45000000       0.00000000 </v>
   <v>       0.32500000       0.45000000       0.00000000 </v>
   <v>       0.37500000       0.45000000       0.00000000 </v>
   <v>       0.42500000       0.45000000       0.00000000 </v>
   <v>       0.47500000       0.45000000       0.00000000 </v>
  </varray>
  <varray name="weights" >
   <v>       0.02000000 </v>
   <v>       0.02000000 </v>
   <v>       0.02000000 </v>
   <v>       0.02000000 </v>
   <v>       0.02000000 </v>
   <v>       0.02000000 </v>
   <v>       0.02000000 </v>
   <v>       0.02000000 </v>
   <v>       0.02000000 </v>
   <v>       0.02000000 </v>
   <v>       0.02000000 </v>
   <v>       0.02000000 </v>
   <v>       0.02000000 </v>
   <v>       0.02000000 </v>
   <v>       0.02000000 </v>
   <v>       0.02000000 </v>
   <v>       0.02000000 </v>
   <v>       0.02000000 </v>
   <v>       0.02000000 </v>
   <v>       0.02000000 </v>
   <v>       0.02000000 </v>
   <v>       0.02000000 </v>
   <v>       0.02000000 </v>
   <v>       0.02000000 </v>
   <v>       0.02000000 </v>
   <v>       0.02000000 </v>
   <v>       0.02000000 </v>
   <v>       0.02000000 </v>
   <v>       0.02000000 </v>
   <v>       0.02000000 </v>
   <v>       0.02000000 </v>
   <v>       0.02000000 </v>
   <v>       0.02000000 </v>
   <v>       0.02000000 </v>
   <v>       0.02000000 </v>
   <v>       0.02000000 </v>
   <v>       0.02000000 </v>
   <v>       0.02000000 </v>
   <v>       0.02000000 </v>
   <v>       0.02000000 </v>
   <v>       0.02000000 </v>
   <v>       0.02000000 </v>
   <v>       0.02000000 </v>
   <v>       0.02000000 </v>
   <v>       0.02000000 </v>
   <v>       0.02000000 </v>
   <v>       0.02000000 </v>
   <v>       0.02000000 </v>
   <v>       0.02000000 </v>
   <v>       0.02000000 </v>
  </varray>
  <varray name="tetrahedronlist"  type="int" >
   <v type="int" >        2        1        1        2       12 </v>
   <v type="int" >        2        1        1       11       12 </v>
   <v type="int" >        2        1       11       11       12 </v>
   <v type="int" >        2        1        2        2       12 </v>
   <v type="int" >        2        1        2       12       12 </v>
   <v type="int" >        2        1       11       12       12 </v>
   <v type="int" >        2        2        2        3       13 </v>
   <v type="int" >        2        2        2       12       13 </v>
   <v type="int" >        2        2       12       12       13 </v>
   <v type="int" >        2        2        3        3       13 </v>
   <v type="int" >        2        2        3       13       13 </v>
   <v type="int" >        2        2       12       13       13 </v>
   <v type="int" >        2        3        3        4       14 </v>
   <v type="int" >        2        3        3       13       14 </v>
   <v type="int" >        2        3       13       13       14 </v>
   <v type="int" >        2        3        4        4       14 </v>
   <v type="int" >        2        3        4       14       14 </v>
   <v type="int" >        2        3       13       14       14 </v>
   <v type="int" >        2        4        4        5       15 </v>
   <v type="int" >        2        4        4       14       15 </v>
   <v type="int" >        2        4       14       14       15 </v>
   <v type="int" >        2        4        5        5       15 </v>
   <v type="int" >        2        4        5       15       15 </v>
   <v type="int" >        2        4       14       15       15 </v>
   <v type="int" >        2        5        5        6       16 </v>
   <v type="int" >        2        5        5       15       16 </v>
   <v type="int" >        2        5       15       15       16 </v>
   <v type="int" >        2        5        6        6       16 </v>
   <v type="int" >        2        5        6       16       16 </v>
   <v type="int" >        2        5       15       16       16 </v>
   <v type="int" >        2        6        6        7       17 </v>
   <v type="int" >        2        6        6       16       17 </v>
   <v type="int" >        2        6       16       16       17 </v>
   <v type="int" >        2        6        7        7       17 </v>
   <v type="int" >        2        6        7       17       17 </v>
   <v type="int" >        2        6       16       17       17 </v>
   <v type="int" >        2        7        7        8       18 </v>
   <v type="int" >        2        7        7       17       18 </v>
   <v type="int" >        2        7       17       17       18 </v>
   <v type="int" >        2        7        8        8       18 </v>
   <v type="int" >        2        7        8       18       18 </v>
   <v type="int" >        2        7       17       18       18 </v>
   <v type="int" >        2        8        8        9       19 </v>
   <v type="int" >        2        8        8       18       19 </v>
   <v type="int" >        2        8       18       18       19 </v>
   <v type="int" >        2        8        9        9       19 </v>
   <v type="int" >        2        8        9       19       19 </v>
   <v type="int" >        2        8       18       19       19 </v>
   <v type="int" >        2        9        9       10       20 </v>
   <v type="int" >        2        9        9       19       20 </v>
   <v type="int" >        2        9       19       19       20 </v>
   <v type="int" >        2        9       10       10       20 </v>
   <v type="int" >        2        9       10       20       20 </v>
   <v type="int" >        2        9       19       20       20 </v>
   <v type="int" >        4       10       10       10       20 </v>
   <v type="int" >        4       10       10       20       20 </v>
   <v type="int" >        4       10       20       20       20 </v>
   <v type="int" >        2        9       10       10       19 </v>
   <v type="int" >        2       10       10       19       20 </v>
   <v type="int" >        2       10       19       20       20 </v>
   <v type="int" >        2        9        9       10       19 </v>
   <v type="int" >        2        9       10       19       19 </v>
   <v type="int" >        2       10       19       19       20 </v>
   <v type="int" >        2        8        9        9       18 </v>
   <v type="int" >        2        9        9       18       19 </v>
   <v type="int" >        2        9       18       19       19 </v>
   <v type="int" >        2        8        8        9       18 </v>
   <v type="int" >        2        8        9       18       18 </v>
   <v type="int" >        2        9       18       18       19 </v>
   <v type="int" >        2        7        8        8       17 </v>
   <v type="int" >        2        8        8       17       18 </v>
   <v type="int" >        2        8       17       18       18 </v>
   <v type="int" >        2        7        7        8       17 </v>
   <v type="int" >        2        7        8       17       17 </v>
   <v type="int" >        2        8       17       17       18 </v>
   <v type="int" >        2        6        7        7       16 </v>
   <v type="int" >        2        7        7       16       17 </v>
   <v type="int" >        2        7       16       17       17 </v>
   <v type="int" >        2        6        6        7       16 </v>
   <v type="int" >        2        6        7       16       16 </v>
   <v type="int" >        2        7       16       16       17 </v>
   <v type="int" >        2        5        6        6       15 </v>
   <v type="int" >        2        6        6       15       16 </v>
   <v type="int" >        2        6       15       16       16 </v>
   <v type="int" >        2        5        5        6       15 </v>
   <v type="int" >        2        5        6       15       15 </v>
   <v type="int" >        2        6       15       15       16 </v>
   <v type="int" >        2        4        5        5       14 </v>
   <v type="int" >        2        5        5       14       15 </v>
   <v type="int" >        2        5       14       15       15 </v>
   <v type="int" >        2        4        4        5       14 </v>
   <v type="int" >        2        4        5       14       14 </v>
   <v type="int" >        2        5       14       14       15 </v>
   <v type="int" >        2        3        4        4       13 </v>
   <v type="int" >        2        4        4       13       14 </v>
   <v type="int" >        2        4       13       14       14 </v>
   <v type="int" >        2        3        3        4       13 </v>
   <v type="int" >        2        3        4       13       13 </v>
   <v type="int" >        2        4       13       13       14 </v>
   <v type="int" >        2        2        3        3       12 </v>
   <v type="int" >        2        3        3       12       13 </v>
   <v type="int" >        2        3       12       13       13 </v>
   <v type="int" >        2        2        2        3       12 </v>
   <v type="int" >        2        2        3       12       12 </v>
   <v type="int" >        2        3       12       12       13 </v>
   <v type="int" >        2        1        2        2       11 </v>
   <v type="int" >        2        2        2       11       12 </v>
   <v type="int" >        2        2       11       12       12 </v>
   <v type="int" >        2        1        1        2       11 </v>
   <v type="int" >        2        1        2       11       11 </v>
   <v type="int" >        2        2       11       11       12 </v>
   <v type="int" >        4        1        1        1       11 </v>
   <v type="int" >        4        1        1       11       11 </v>
   <v type="int" >        4        1       11       11       11 </v>
   <v type="int" >        2       11       11       12       22 </v>
   <v type="int" >        2       11       11       21       22 </v>
   <v type="int" >        2       11       21       21       22 </v>
   <v type="int" >        2       11       12       12       22 </v>
   <v type="int" >        2       11       12       22       22 </v>
   <v type="int" >        2       11       21       22       22 </v>
   <v type="int" >        2       12       12       13       23 </v>
   <v type="int" >        2       12       12       22       23 </v>
   <v type="int" >        2       12       22       22       23 </v>
   <v type="int" >        2       12       13       13       23 </v>
   <v type="int" >        2       12       13       23       23 </v>
   <v type="int" >        2       12       22       23       23 </v>
   <v type="int" >        2       13       13       14       24 </v>
   <v type="int" >        2       13       13       23       24 </v>
   <v type="int" >        2       13       23       23       24 </v>
   <v type="int" >        2       13       14       14       24 </v>
   <v type="int" >        2       13       14       24       24 </v>
   <v type="int" >        2       13       23       24       24 </v>
   <v type="int" >        2       14       14       15       25 </v>
   <v type="int" >        2       14       14       24       25 </v>
   <v type="int" >        2       14       24       24       25 </v>
   <v type="int" >        2       14       15       15       25 </v>
   <v type="int" >        2       14       15       25       25 </v>
   <v type="int" >        2       14       24       25       25 </v>
   <v type="int" >        2       15       15       16       26 </v>
   <v type="int" >        2       15       15       25       26 </v>
   <v type="int" >        2       15       25       25       26 </v>
   <v type="int" >        2       15       16       16       26 </v>
   <v type="int" >        2       15       16       26       26 </v>
   <v type="int" >        2       15       25       26       26 </v>
   <v type="int" >        2       16       16       17       27 </v>
   <v type="int" >        2       16       16       26       27 </v>
   <v type="int" >        2       16       26       26       27 </v>
   <v type="int" >        2       16       17       17       27 </v>
   <v type="int" >        2       16       17       27       27 </v>
   <v type="int" >        2       16       26       27       27 </v>
   <v type="int" >        2       17       17       18       28 </v>
   <v type="int" >        2       17       17       27       28 </v>
   <v type="int" >        2       17       27       27       28 </v>
   <v type="int" >        2       17       18       18       28 </v>
   <v type="int" >        2       17       18       28       28 </v>
   <v type="int" >        2       17       27       28       28 </v>
   <v type="int" >        2       18       18       19       29 </v>
   <v type="int" >        2       18       18       28       29 </v>
   <v type="int" >        2       18       28       28       29 </v>
   <v type="int" >        2       18       19       19       29 </v>
   <v type="int" >        2       18       19       29       29 </v>
   <v type="int" >        2       18       28       29       29 </v>
   <v type="int" >        2       19       19       20       30 </v>
   <v type="int" >        2       19       19       29       30 </v>
   <v type="int" >        2       19       29       29       30 </v>
   <v type="int" >        2       19       20       20       30 </v>
   <v type="int" >        2       19       20       30       30 </v>
   <v type="int" >        2       19       29       30       30 </v>
   <v type="int" >        4       20       20       20       30 </v>
   <v type="int" >        4       20       20       30       30 </v>
   <v type="int" >        4       20       30       30       30 </v>
   <v type="int" >        2       19       20       20       29 </v>
   <v type="int" >        2       20       20       29       30 </v>
   <v type="int" >        2       20       29       30       30 </v>
   <v type="int" >        2       19       19       20       29 </v>
   <v type="int" >        2       19       20       29       29 </v>
   <v type="int" >        2       20       29       29       30 </v>
   <v type="int" >        2       18       19       19       28 </v>
   <v type="int" >        2       19       19       28       29 </v>
   <v type="int" >        2       19       28       29       29 </v>
   <v type="int" >        2       18       18       19       28 </v>
   <v type="int" >        2       18       19       28       28 </v>
   <v type="int" >        2       19       28       28       29 </v>
   <v type="int" >        2       17       18       18       27 </v>
   <v type="int" >        2       18       18       27       28 </v>
   <v type="int" >        2       18       27       28       28 </v>
   <v type="int" >        2       17       17       18       27 </v>
   <v type="int" >        2       17       18       27       27 </v>
   <v type="int" >        2       18       27       27       28 </v>
   <v type="int" >        2       16       17       17       26 </v>
   <v type="int" >        2       17       17       26       27 </v>
   <v type="int" >        2       17       26       27       27 </v>
   <v type="int" >        2       16       16       17       26 </v>
   <v type="int" >        2       16       17       26       26 </v>
   <v type="int" >        2       17       26       26       27 </v>
   <v type="int" >        2       15       16       16       25 </v>
   <v type="int" >        2       16       16       25       26 </v>
   <v type="int" >        2       16       25       26       26 </v>
   <v type="int" >        2       15       15       16       25 </v>
   <v type="int" >        2       15       16       25       25 </v>
   <v type="int" >        2       16       25       25       26 </v>
   <v type="int" >        2       14       15       15       24 </v>
   <v type="int" >        2       15       15       24       25 </v>
   <v type="int" >        2       15       24       25       25 </v>
   <v type="int" >        2       14       14       15       24 </v>
   <v type="int" >        2       14       15       24       24 </v>
   <v type="int" >        2       15       24       24       25 </v>
   <v type="int" >        2       13       14       14       23 </v>
   <v type="int" >        2       14       14       23       24 </v>
   <v type="int" >        2       14       23       24       24 </v>
   <v type="int" >        2       13       13       14       23 </v>
   <v type="int" >        2       13       14       23       23 </v>
   <v type="int" >        2       14       23       23       24 </v>
   <v type="int" >        2       12       13       13       22 </v>
   <v type="int" >        2       13       13       22       23 </v>
   <v type="int" >        2       13       22       23       23 </v>
   <v type="int" >        2       12       12       13       22 </v>
   <v type="int" >        2       12       13       22       22 </v>
   <v type="int" >        2       13       22       22       23 </v>
   <v type="int" >        2       11       12       12       21 </v>
   <v type="int" >        2       12       12       21       22 </v>
   <v type="int" >        2       12       21       22       22 </v>
   <v type="int" >        2       11       11       12       21 </v>
   <v type="int" >        2       11       12       21       21 </v>
   <v type="int" >        2       12       21       21       22 </v>
   <v type="int" >        4       11       11       11       21 </v>
   <v type="int" >        4       11       11       21       21 </v>
   <v type="int" >        4       11       21       21       21 </v>
   <v type="int" >        2       21       21       22       32 </v>
   <v type="int" >        2       21       21       31       32 </v>
   <v type="int" >        2       21       31       31       32 </v>
   <v type="int" >        2       21       22       22       32 </v>
   <v type="int" >        2       21       22       32       32 </v>
   <v type="int" >        2       21       31       32       32 </v>
   <v type="int" >        2       22       22       23       33 </v>
   <v type="int" >        2       22       22       32       33 </v>
   <v type="int" >        2       22       32       32       33 </v>
   <v type="int" >        2       22       23       23       33 </v>
   <v type="int" >        2       22       23       33       33 </v>
   <v type="int" >        2       22       32       33       33 </v>
   <v type="int" >        2       23       23       24       34 </v>
   <v type="int" >        2       23       23       33       34 </v>
   <v type="int" >        2       23       33       33       34 </v>
   <v type="int" >        2       23       24       24       34 </v>
   <v type="int" >        2       23       24       34       34 </v>
   <v type="int" >        2       23       33       34       34 </v>
   <v type="int" >        2       24       24       25       35 </v>
   <v type="int" >        2       24       24       34       35 </v>
   <v type="int" >        2       24       34       34       35 </v>
   <v type="int" >        2       24       25       25       35 </v>
   <v type="int" >        2       24       25       35       35 </v>
   <v type="int" >        2       24       34       35       35 </v>
   <v type="int" >        2       25       25       26       36 </v>
   <v type="int" >        2       25       25       35       36 </v>
   <v type="int" >        2       25       35       35       36 </v>
   <v type="int" >        2       25       26       26       36 </v>
   <v type="int" >        2       25       26       36       36 </v>
   <v type="int" >        2       25       35       36       36 </v>
   <v type="int" >        2       26       26       27       37 </v>
   <v type="int" >        2       26       26       36       37 </v>
   <v type="int" >        2       26       36       36       37 </v>
   <v type="int" >        2       26       27       27       37 </v>
   <v type="int" >        2       26       27       37       37 </v>
   <v type="int" >        2       26       36       37       37 </v>
   <v type="int" >        2       27       27       28       38 </v>
   <v type="int" >        2       27       27       37       38 </v>
   <v type="int" >        2       27       37       37       38 </v>
   <v type="int" >        2       27       28       28       38 </v>
   <v type="int" >        2       27       28       38       38 </v>
   <v type="int" >        2       27       37       38       38 </v>
   <v type="int" >        2       28       28       29       39 </v>
   <v type="int" >        2       28       28       38       39 </v>
   <v type="int" >        2       28       38       38       39 </v>
   <v type="int" >        2       28       29       29       39 </v>
   <v type="int" >        2       28       29       39       39 </v>
   <v type="int" >        2       28       38       39       39 </v>
   <v type="int" >        2       29       29       30       40 </v>
   <v type="int" >        2       29       29       39       40 </v>
   <v type="int" >        2       29       39       39       40 </v>
   <v type="int" >        2       29       30       30       40 </v>
   <v type="int" >        2       29       30       40       40 </v>
   <v type="int" >        2       29       39       40       40 </v>
   <v type="int" >        4       30       30       30       40 </v>
   <v type="int" >        4       30       30       40       40 </v>
   <v type="int" >        4       30       40       40       40 </v>
   <v type="int" >        2       29       30       30       39 </v>
   <v type="int" >        2       30       30       39       40 </v>
   <v type="int" >        2       30       39       40       40 </v>
   <v type="int" >        2       29       29       30       39 </v>
   <v type="int" >        2       29       30       39       39 </v>
   <v type="int" >        2       30       39       39       40 </v>
   <v type="int" >        2       28       29       29       38 </v>
   <v type="int" >        2       29       29       38       39 </v>
   <v type="int" >        2       29       38       39       39 </v>
   <v type="int" >        2       28       28       29       38 </v>
   <v type="int" >        2       28       29       38       38 </v>
   <v type="int" >        2       29       38       38       39 </v>
   <v type="int" >        2       27       28       28       37 </v>
   <v type="int" >        2       28       28       37       38 </v>
   <v type="int" >        2       28       37       38       38 </v>
   <v type="int" >        2       27       27       28       37 </v>
   <v type="int" >        2       27       28       37       37 </v>
   <v type="int" >        2       28       37       37       38 </v>
   <v type="int" >        2       26       27       27       36 </v>
   <v type="int" >        2       27       27       36       37 </v>
   <v type="int" >        2       27       36       37       37 </v>
   <v type="int" >        2       26       26       27       36 </v>
   <v type="int" >        2       26       27       36       36 </v>
   <v type="int" >        2       27       36       36       37 </v>
   <v type="int" >        2       25       26       26       35 </v>
   <v type="int" >        2       26       26       35       36 </v>
   <v type="int" >        2       26       35       36       36 </v>
   <v type="int" >        2       25       25       26       35 </v>
   <v type="int" >        2       25       26       35       35 </v>
   <v type="int" >        2       26       35       35       36 </v>
   <v type="int" >        2       24       25       25       34 </v>
   <v type="int" >        2       25       25       34       35 </v>
   <v type="int" >        2       25       34       35       35 </v>
   <v type="int" >        2       24       24       25       34 </v>
   <v type="int" >        2       24       25       34       34 </v>
   <v type="int" >        2       25       34       34       35 </v>
   <v type="int" >        2       23       24       24       33 </v>
   <v type="int" >        2       24       24       33       34 </v>
   <v type="int" >        2       24       33       34       34 </v>
   <v type="int" >        2       23       23       24       33 </v>
   <v type="int" >        2       23       24       33       33 </v>
   <v type="int" >        2       24       33       33       34 </v>
   <v type="int" >        2       22       23       23       32 </v>
   <v type="int" >        2       23       23       32       33 </v>
   <v type="int" >        2       23       32       33       33 </v>
   <v type="int" >        2       22       22       23       32 </v>
   <v type="int" >        2       22       23       32       32 </v>
   <v type="int" >        2       23       32       32       33 </v>
   <v type="int" >        2       21       22       22       31 </v>
   <v type="int" >        2       22       22       31       32 </v>
   <v type="int" >        2       22       31       32       32 </v>
   <v type="int" >        2       21       21       22       31 </v>
   <v type="int" >        2       21       22       31       31 </v>
   <v type="int" >        2       22       31       31       32 </v>
   <v type="int" >        4       21       21       21       31 </v>
   <v type="int" >        4       21       21       31       31 </v>
   <v type="int" >        4       21       31       31       31 </v>
   <v type="int" >        2       31       31       32       42 </v>
   <v type="int" >        2       31       31       41       42 </v>
   <v type="int" >        2       31       41       41       42 </v>
   <v type="int" >        2       31       32       32       42 </v>
   <v type="int" >        2       31       32       42       42 </v>
   <v type="int" >        2       31       41       42       42 </v>
   <v type="int" >        2       32       32       33       43 </v>
   <v type="int" >        2       32       32       42       43 </v>
   <v type="int" >        2       32       42       42       43 </v>
   <v type="int" >        2       32       33       33       43 </v>
   <v type="int" >        2       32       33       43       43 </v>
   <v type="int" >        2       32       42       43       43 </v>
   <v type="int" >        2       33       33       34       44 </v>
   <v type="int" >        2       33       33       43       44 </v>
   <v type="int" >        2       33       43       43       44 </v>
   <v type="int" >        2       33       34       34       44 </v>
   <v type="int" >        2       33       34       44       44 </v>
   <v type="int" >        2       33       43       44       44 </v>
   <v type="int" >        2       34       34       35       45 </v>
   <v type="int" >        2       34       34       44       45 </v>
   <v type="int" >        2       34       44       44       45 </v>
   <v type="int" >        2       34       35       35       45 </v>
   <v type="int" >        2       34       35       45       45 </v>
   <v type="int" >        2       34       44       45       45 </v>
   <v type="int" >        2       35       35       36       46 </v>
   <v type="int" >        2       35       35       45       46 </v>
   <v type="int" >        2       35       45       45       46 </v>
   <v type="int" >        2       35       36       36       46 </v>
   <v type="int" >        2       35       36       46       46 </v>
   <v type="int" >        2       35       45       46       46 </v>
   <v type="int" >        2       36       36       37       47 </v>
   <v type="int" >        2       36       36       46       47 </v>
   <v type="int" >        2       36       46       46       47 </v>
   <v type="int" >        2       36       37       37       47 </v>
   <v type="int" >        2       36       37       47       47 </v>
   <v type="int" >        2       36       46       47       47 </v>
   <v type="int" >        2       37       37       38       48 </v>
   <v type="int" >        2       37       37       47       48 </v>
   <v type="int" >        2       37       47       47       48 </v>
   <v type="int" >        2       37       38       38       48 </v>
   <v type="int" >        2       37       38       48       48 </v>
   <v type="int" >        2       37       47       48       48 </v>
   <v type="int" >        2       38       38       39       49 </v>
   <v type="int" >        2       38       38       48       49 </v>
   <v type="int" >        2       38       48       48       49 </v>
   <v type="int" >        2       38       39       39       49 </v>
   <v type="int" >        2       38       39       49       49 </v>
   <v type="int" >        2       38       48       49       49 </v>
   <v type="int" >        2       39       39       40       50 </v>
   <v type="int" >        2       39       39       49       50 </v>
   <v type="int" >        2       39       49       49       50 </v>
   <v type="int" >        2       39       40       40       50 </v>
   <v type="int" >        2       39       40       50       50 </v>
   <v type="int" >        2       39       49       50       50 </v>
   <v type="int" >        4       40       40       40       50 </v>
   <v type="int" >        4       40       40       50       50 </v>
   <v type="int" >        4       40       50       50       50 </v>
   <v type="int" >        2       39       40       40       49 </v>
   <v type="int" >        2       40       40       49       50 </v>
   <v type="int" >        2       40       49       50       50 </v>
   <v type="int" >        2       39       39       40       49 </v>
   <v type="int" >        2       39       40       49       49 </v>
   <v type="int" >        2       40       49       49       50 </v>
   <v type="int" >        2       38       39       39       48 </v>
   <v type="int" >        2       39       39       48       49 </v>
   <v type="int" >        2       39       48       49       49 </v>
   <v type="int" >        2       38       38       39       48 </v>
   <v type="int" >        2       38       39       48       48 </v>
   <v type="int" >        2       39       48       48       49 </v>
   <v type="int" >        2       37       38       38       47 </v>
   <v type="int" >        2       38       38       47       48 </v>
   <v type="int" >        2       38       47       48       48 </v>
   <v type="int" >        2       37       37       38       47 </v>
   <v type="int" >        2       37       38       47       47 </v>
   <v type="int" >        2       38       47       47       48 </v>
   <v type="int" >        2       36       37       37       46 </v>
   <v type="int" >        2       37       37       46       47 </v>
   <v type="int" >        2       37       46       47       47 </v>
   <v type="int" >        2       36       36       37       46 </v>
   <v type="int" >        2       36       37       46       46 </v>
   <v type="int" >        2       37       46       46       47 </v>
   <v type="int" >        2       35       36       36       45 </v>
   <v type="int" >        2       36       36       45       46 </v>
   <v type="int" >        2       36       45       46       46 </v>
   <v type="int" >        2       35       35       36       45 </v>
   <v type="int" >        2       35       36       45       45 </v>
   <v type="int" >        2       36       45       45       46 </v>
   <v type="int" >        2       34       35       35       44 </v>
   <v type="int" >        2       35       35       44       45 </v>
   <v type="int" >        2       35       44       45       45 </v>
   <v type="int" >        2       34       34       35       44 </v>
   <v type="int" >        2       34       35       44       44 </v>
   <v type="int" >        2       35       44       44       45 </v>
   <v type="int" >        2       33       34       34       43 </v>
   <v type="int" >        2       34       34       43       44 </v>
   <v type="int" >        2       34       43       44       44 </v>
   <v type="int" >        2       33       33       34       43 </v>
   <v type="int" >        2       33       34       43       43 </v>
   <v type="int" >        2       34       43       43       44 </v>
   <v type="int" >        2       32       33       33       42 </v>
   <v type="int" >        2       33       33       42       43 </v>
   <v type="int" >        2       33       42       43       43 </v>
   <v type="int" >        2       32       32       33       42 </v>
   <v type="int" >        2       32       33       42       42 </v>
   <v type="int" >        2       33       42       42       43 </v>
   <v type="int" >        2       31       32       32       41 </v>
   <v type="int" >        2       32       32       41       42 </v>
   <v type="int" >        2       32       41       42       42 </v>
   <v type="int" >        2       31       31       32       41 </v>
   <v type="int" >        2       31       32       41       41 </v>
   <v type="int" >        2       32       41       41       42 </v>
   <v type="int" >        4       31       31       31       41 </v>
   <v type="int" >        4       31       31       41       41 </v>
   <v type="int" >        4       31       41       41       41 </v>
   <v type="int" >        4       41       41       42       42 </v>
   <v type="int" >        4       41       41       41       42 </v>
   <v type="int" >        4       41       42       42       42 </v>
   <v type="int" >        4       42       42       43       43 </v>
   <v type="int" >        4       42       42       42       43 </v>
   <v type="int" >        4       42       43       43       43 </v>
   <v type="int" >        4       43       43       44       44 </v>
   <v type="int" >        4       43       43       43       44 </v>
   <v type="int" >        4       43       44       44       44 </v>
   <v type="int" >        4       44       44       45       45 </v>
   <v type="int" >        4       44       44       44       45 </v>
   <v type="int" >        4       44       45       45       45 </v>
   <v type="int" >        4       45       45       46       46 </v>
   <v type="int" >        4       45       45       45       46 </v>
   <v type="int" >        4       45       46       46       46 </v>
   <v type="int" >        4       46       46       47       47 </v>
   <v type="int" >        4       46       46       46       47 </v>
   <v type="int" >        4       46       47       47       47 </v>
   <v type="int" >        4       47       47       48       48 </v>
   <v type="int" >        4       47       47       47       48 </v>
   <v type="int" >        4       47       48       48       48 </v>
   <v type="int" >        4       48       48       49       49 </v>
   <v type="int" >        4       48       48       48       49 </v>
   <v type="int" >        4       48       49       49       49 </v>
   <v type="int" >        4       49       49       50       50 </v>
   <v type="int" >        4       49       49       49       50 </v>
   <v type="int" >        4       49       50       50       50 </v>
   <v type="int" >        6       50       50       50       50 </v>
   <v type="int" >        6       41       41       41       41 </v>
   <v type="int" >        4        1        1        2        2 </v>
   <v type="int" >        4        1        1        1        2 </v>
   <v type="int" >        4        1        2        2        2 </v>
   <v type="int" >        4        2        2        3        3 </v>
   <v type="int" >        4        2        2        2        3 </v>
   <v type="int" >        4        2        3        3        3 </v>
   <v type="int" >        4        3        3        4        4 </v>
   <v type="int" >        4        3        3        3        4 </v>
   <v type="int" >        4        3        4        4        4 </v>
   <v type="int" >        4        4        4        5        5 </v>
   <v type="int" >        4        4        4        4        5 </v>
   <v type="int" >        4        4        5        5        5 </v>
   <v type="int" >        4        5        5        6        6 </v>
   <v type="int" >        4        5        5        5        6 </v>
   <v type="int" >        4        5        6        6        6 </v>
   <v type="int" >        4        6        6        7        7 </v>
   <v type="int" >        4        6        6        6        7 </v>
   <v type="int" >        4        6        7        7        7 </v>
   <v type="int" >        4        7        7        8        8 </v>
   <v type="int" >        4        7        7        7        8 </v>
   <v type="int" >        4        7        8        8        8 </v>
   <v type="int" >        4        8        8        9        9 </v>
   <v type="int" >        4        8        8        8        9 </v>
   <v type="int" >        4        8        9        9        9 </v>
   <v type="int" >        4        9        9       10       10 </v>
   <v type="int" >        4        9        9        9       10 </v>
   <v type="int" >        4        9       10       10       10 </v>
   <v type="int" >        6       10       10       10       10 </v>
   <v type="int" >        6        1        1        1        1 </v>
  </varray>
  <i name="volumeweight">      0.00083333 </i>
 </kpoints>
 <parameters>
  <separator name="general" >
   <i type="string" name="SYSTEM">MoTe2</i>
   <i type="logical" name="LCOMPAT"> F  </i>
  </separator>
  <separator name="electronic" >
   <i type="string" name="PREC">accura</i>
   <i name="ENMAX">    400.00000000</i>
   <i name="ENAUG">    368.79200000</i>
   <i name="EDIFF">      0.00010000</i>
   <i type="int" name="IALGO">    38</i>
   <i type="int" name="IWAVPR">    10</i>
   <i type="int" name="NBANDS">    44</i>
   <i name="NELECT">     73.00000000</i>
   <i type="int" name="TURBO">     0</i>
   <i type="int" name="IRESTART">     0</i>
   <i type="int" name="NREBOOT">     0</i>
   <i type="int" name="NMIN">     0</i>
   <i name="EREF">      0.00000000</i>
   <separator name="electronic smearing" >
    <i type="int" name="ISMEAR">    -5</i>
    <i name="SIGMA">      0.05000000</i>
    <i name="KSPACING">      0.50000000</i>
    <i type="logical" name="KGAMMA"> T  </i>
   </separator>
   <separator name="electronic projectors" >
    <i type="logical" name="LREAL"> F  </i>
    <v name="ROPT">      0.00000000      0.00000000      0.00000000</v>
    <i type="int" name="LMAXPAW">  -100</i>
    <i type="int" name="LMAXMIX">     2</i>
    <i type="logical" name="NLSPLINE"> F  </i>
   </separator>
   <separator name="electronic startup" >
    <i type="int" name="ISTART">     0</i>
    <i type="int" name="ICHARG">     2</i>
    <i type="int" name="INIWAV">     1</i>
   </separator>
   <separator name="electronic spin" >
    <i type="int" name="ISPIN">     1</i>
    <i type="logical" name="LNONCOLLINEAR"> F  </i>
    <v name="MAGMOM">      1.00000000      1.00000000      1.00000000      1.00000000      1.00000000      1.00000000      1.00000000      1.00000000      1.00000000      1.00000000      1.00000000      1.00000000      1.00000000</v>
    <i name="NUPDOWN">     -1.00000000</i>
    <i type="logical" name="LSORBIT"> F  </i>
    <v name="SAXIS">      0.00000000      0.00000000      1.00000000</v>
    <i type="logical" name="LSPIRAL"> F  </i>
    <v name="QSPIRAL">      0.00000000      0.00000000      0.00000000</v>
    <i type="logical" name="LZEROZ"> F  </i>
   </separator>
   <separator name="electronic exchange-correlation" >
    <i type="logical" name="LASPH"> T  </i>
    <i type="logical" name="LMETAGGA"> F  </i>
   </separator>
   <separator name="electronic convergence" >
    <i type="int" name="NELM">    60</i>
    <i type="int" name="NELMDL">     0</i>
    <i type="int" name="NELMIN">     2</i>
    <i name="ENINI">    400.00000000</i>
    <separator name="electronic convergence detail" >
     <i type="logical" name="LDIAG"> T  </i>
     <i type="logical" name="LSUBROT"> F  </i>
     <i name="WEIMIN">      0.00000000</i>
     <i name="EBREAK">      0.00000057</i>
     <i name="DEPER">      0.30000000</i>
     <i type="int" name="NRMM">     4</i>
     <i name="TIME">      0.40000000</i>
    </separator>
   </separator>
   <separator name="electronic mixer" >
    <i name="AMIX">      0.40000000</i>
    <i name="BMIX">      1.00000000</i>
    <i name="AMIN">      0.10000000</i>
    <i name="AMIX_MAG">      1.60000000</i>
    <i name="BMIX_MAG">      1.00000000</i>
    <separator name="electronic mixer details" >
     <i type="int" name="IMIX">     4</i>
     <i type="logical" name="MIXFIRST"> F  </i>
     <i type="int" name="MAXMIX">   -45</i>
     <i name="WC">    100.00000000</i>
     <i type="int" name="INIMIX">     1</i>
     <i type="int" name="MIXPRE">     1</i>
     <i type="int" name="MREMOVE">     5</i>
    </separator>
   </separator>
   <separator name="electronic dipolcorrection" >
    <i type="logical" name="LDIPOL"> F  </i>
    <i type="logical" name="LMONO"> F  </i>
    <i type="int" name="IDIPOL">     0</i>
    <i name="EPSILON">      1.00000000</i>
    <v name="DIPOL">   -100.00000000   -100.00000000   -100.00000000</v>
    <i name="EFIELD">      0.00000000</i>
   </separator>
  </separator>
  <separator name="grids" >
   <i type="int" name="NGX">    24</i>
   <i type="int" name="NGY">    40</i>
   <i type="int" name="NGZ">   240</i>
   <i type="int" name="NGXF">    48</i>
   <i type="int" name="NGYF">    80</i>
   <i type="int" name="NGZF">   480</i>
   <i type="logical" name="ADDGRID"> F  </i>
  </separator>
  <separator name="ionic" >
   <i type="int" name="NSW">     0</i>
   <i type="int" name="IBRION">    -1</i>
   <i type="int" name="MDALGO">     0</i>
   <i type="int" name="ISIF">     2</i>
   <i name="PSTRESS">      0.00000000</i>
   <i name="EDIFFG">      0.00100000</i>
   <i type="int" name="NFREE">     0</i>
   <i name="POTIM">      0.50000000</i>
   <i name="SMASS">     -3.00000000</i>
   <i name="SCALEE">      1.00000000</i>
  </separator>
  <separator name="ionic md" >
   <i name="TEBEG">      0.00010000</i>
   <i name="TEEND">      0.00010000</i>
   <i type="int" name="NBLOCK">     1</i>
   <i type="int" name="KBLOCK">     1</i>
   <i type="int" name="NPACO">   256</i>
   <i name="APACO">     16.00000000</i>
  </separator>
  <separator name="symmetry" >
   <i type="int" name="ISYM">     2</i>
   <i name="SYMPREC">      0.00001000</i>
  </separator>
  <separator name="dos" >
   <i type="int" name="LORBIT">     0</i>
   <v name="RWIGS">     -1.00000000     -1.00000000     -1.00000000</v>
   <i type="int" name="NEDOS">   301</i>
   <i name="EMIN">     10.00000000</i>
   <i name="EMAX">    -10.00000000</i>
   <i name="EFERMI">      0.00000000</i>
  </separator>
  <separator name="writing" >
   <i type="int" name="NWRITE">     1</i>
   <i type="logical" name="LWAVE"> F  </i>
   <i type="logical" name="LDOWNSAMPLE"> F  </i>
   <i type="logical" name="LCHARG"> T  </i>
   <i type="logical" name="LPARD"> F  </i>
   <i type="logical" name="LVTOT"> T  </i>
   <i type="logical" name="LVHAR"> F  </i>
   <i type="logical" name="LELF"> F  </i>
   <i type="logical" name="LOPTICS"> F  </i>
   <v name="STM">      0.00000000      0.00000000      0.00000000      0.00000000      0.00000000      0.00000000      0.00000000</v>
  </separator>
  <separator name="performance" >
   <i type="int" name="NPAR">     4</i>
   <i type="int" name="NSIM">     4</i>
   <i type="int" name="NBLK">    -1</i>
   <i type="logical" name="LPLANE"> T  </i>
   <i type="logical" name="LSCALAPACK"> T  </i>
   <i type="logical" name="LSCAAWARE"> F  </i>
   <i type="logical" name="LSCALU"> F  </i>
   <i type="logical" name="LASYNC"> F  </i>
   <i type="logical" name="LORBITALREAL"> F  </i>
  </separator>
  <separator name="miscellaneous" >
   <i type="int" name="IDIOT">     3</i>
   <i type="int" name="ISPECIAL">     0</i>
   <i type="logical" name="LMUSIC"> F  </i>
   <v name="POMASS">    127.60000000     95.94000000      7.01000000</v>
   <v name="DARWINR">      0.00000000      0.00000000      0.00000000</v>
   <v name="DARWINV">      1.00000000      1.00000000      1.00000000</v>
   <i type="logical" name="LCORR"> T  </i>
  </separator>
  <i type="logical" name="GGA_COMPAT"> T  </i>
  <i type="logical" name="LBERRY"> F  </i>
  <i type="int" name="ICORELEVEL">     0</i>
  <i type="logical" name="LDAU"> F  </i>
  <i type="int" name="I_CONSTRAINED_M">     0</i>
  <separator name="electronic exchange-correlation" >
   <i type="string" name="GGA">--</i>
   <i type="int" name="VOSKOWN">     0</i>
   <i type="logical" name="LHFCALC"> F  </i>
   <i type="string" name="PRECFOCK"></i>
   <i type="logical" name="LSYMGRAD"> F  </i>
   <i type="logical" name="LHFONE"> F  </i>
   <i type="logical" name="LRHFCALC"> F  </i>
   <i type="logical" name="LTHOMAS"> F  </i>
   <i type="logical" name="LMODELHF"> F  </i>
   <i name="ENCUT4O">     -1.00000000</i>
   <i type="int" name="EXXOEP">     0</i>
   <i type="int" name="FOURORBIT">     0</i>
   <i name="AEXX">      0.00000000</i>
   <i name="HFALPHA">      0.00000000</i>
   <i name="MCALPHA">      0.00000000</i>
   <i name="ALDAX">      1.00000000</i>
   <i name="AGGAX">      1.00000000</i>
   <i name="ALDAC">      1.00000000</i>
   <i name="AGGAC">      1.00000000</i>
   <i type="int" name="NKREDX">     1</i>
   <i type="int" name="NKREDY">     1</i>
   <i type="int" name="NKREDZ">     1</i>
   <i type="logical" name="SHIFTRED"> F  </i>
   <i type="logical" name="ODDONLY"> F  </i>
   <i type="logical" name="EVENONLY"> F  </i>
   <i type="int" name="LMAXFOCK">     0</i>
   <i type="int" name="NMAXFOCKAE">     0</i>
   <i type="logical" name="LFOCKAEDFT"> F  </i>
   <i name="HFSCREEN">      0.00000000</i>
   <i name="HFSCREENC">      0.00000000</i>
   <i type="int" name="NBANDSGWLOW">     0</i>
  </separator>
  <separator name="vdW DFT" >
   <i type="logical" name="LUSE_VDW"> T  </i>
   <i name="Zab_VDW">     -0.84910000</i>
   <i name="PARAM1">      0.12340000</i>
   <i name="PARAM2">      1.00000000</i>
   <i name="PARAM3">      0.00000000</i>
  </separator>
  <separator name="model GW" >
   <i type="int" name="MODEL_GW">     0</i>
   <i name="MODEL_EPS0">     34.34185355</i>
   <i name="MODEL_ALPHA">      1.00000000</i>
  </separator>
  <separator name="linear response parameters" >
   <i type="logical" name="LEPSILON"> F  </i>
   <i type="logical" name="LRPA"> F  </i>
   <i type="logical" name="LNABLA"> F  </i>
   <i type="logical" name="LVEL"> F  </i>
   <i type="int" name="KINTER">     0</i>
   <i name="CSHIFT">      0.10000000</i>
   <i name="OMEGAMAX">     -1.00000000</i>
   <i name="DEG_THRESHOLD">      0.00200000</i>
   <i name="RTIME">     -0.10000000</i>
   <i name="WPLASMAI">      0.00000000</i>
   <v name="DFIELD">      0.00000000      0.00000000      0.00000000</v>
   <v name="WPLASMA">      0.00000000      0.00000000      0.00000000      0.00000000      0.00000000      0.00000000      0.00000000      0.00000000      0.00000000</v>
  </separator>
  <separator name="orbital magnetization" >
   <i type="logical" name="NUCIND"> F  </i>
   <v name="MAGPOS">      0.00000000      0.00000000      0.00000000</v>
   <i type="logical" name="LNICSALL"> T  </i>
   <i type="logical" name="ORBITALMAG"> F  </i>
   <i type="logical" name="LMAGBLOCH"> F  </i>
   <i type="logical" name="LCHIMAG"> F  </i>
   <i type="logical" name="LGAUGE"> T  </i>
   <i type="int" name="MAGATOM">     0</i>
   <v name="MAGDIPOL">      0.00000000      0.00000000      0.00000000</v>
   <v name="AVECCONST">      0.00000000      0.00000000      0.00000000</v>
  </separator>
  <separator name="response functions" >
   <i type="logical" name="LADDER"> F  </i>
   <i type="logical" name="LRPAFORCE"> F  </i>
   <i type="logical" name="LFXC"> F  </i>
   <i type="logical" name="LHARTREE"> T  </i>
   <i type="int" name="IBSE">     0</i>
   <v type="int" name="KPOINT">    -1     0     0     0</v>
   <i type="logical" name="LTCTE"> F  </i>
   <i type="logical" name="LTETE"> F  </i>
   <i type="logical" name="LTRIPLET"> F  </i>
   <i type="logical" name="LFXCEPS"> F  </i>
   <i type="logical" name="LFXHEG"> F  </i>
   <i type="int" name="NATURALO">     2</i>
   <i type="logical" name="L2ORDER"> F  </i>
   <i type="logical" name="LMP2LT"> F  </i>
   <i type="logical" name="LUSEW"> F  </i>
   <i name="ENCUTGW">     -2.00000000</i>
   <i name="ENCUTGWSOFT">     -2.00000000</i>
   <i name="ENCUTLF">     -1.00000000</i>
   <i type="int" name="LMAXMP2">    -1</i>
   <i name="SCISSOR">      0.00000000</i>
   <i type="int" name="NOMEGA">     0</i>
   <i type="int" name="NOMEGAR">     0</i>
   <i type="int" name="NBANDSGW">    -1</i>
   <i type="int" name="NBANDSO">    -1</i>
   <i type="int" name="NBANDSV">    -1</i>
   <i type="int" name="NELM">     1</i>
   <i type="int" name="NELMHF">     1</i>
   <i type="int" name="DIM">     3</i>
   <i type="int" name="ANTIRES">     0</i>
   <i name="OMEGAMAX">    -30.00000000</i>
   <i name="OMEGAMIN">    -30.00000000</i>
   <i name="OMEGATL">   -200.00000000</i>
   <i type="int" name="OMEGAGRID">   140</i>
   <i name="CSHIFT">     -0.10000000</i>
   <i type="logical" name="SELFENERGY"> F  </i>
   <i type="logical" name="LSPECTRAL"> F  </i>
   <i type="logical" name="LSPECTRALGW"> F  </i>
   <i type="logical" name="LSINGLES"> F  </i>
   <i type="logical" name="LFERMIGW"> F  </i>
   <i type="logical" name="ODDONLYGW"> F  </i>
   <i type="logical" name="EVENONLYGW"> F  </i>
   <i type="int" name="NKREDLFX">     1</i>
   <i type="int" name="NKREDLFY">     1</i>
   <i type="int" name="NKREDLFZ">     1</i>
   <i type="int" name="MAXMEM">  2800</i>
   <i type="int" name="TELESCOPE">     0</i>
   <i type="int" name="TAUPAR">     1</i>
   <i type="int" name="OMEGAPAR">    -1</i>
   <i name="LAMBDA">      1.00000000</i>
  </separator>
  <separator name="External order field" >
   <i name="OFIELD_KAPPA">      0.00000000</i>
   <v name="OFIELD_K">      0.00000000      0.00000000      0.00000000</v>
   <i name="OFIELD_Q6_NEAR">      0.00000000</i>
   <i name="OFIELD_Q6_FAR">      0.00000000</i>
   <i name="OFIELD_A">      0.00000000</i>
  </separator>
 </parameters>
 <atominfo>
  <atoms>      13 </atoms>
  <types>       3 </types>
  <array name="atoms" >
   <dimension dim="1">ion</dimension>
   <field type="string">element</field>
   <field type="int">atomtype</field>
   <set>
    <rc><c>Te</c><c>   1</c></rc>
    <rc><c>Te</c><c>   1</c></rc>
    <rc><c>Te</c><c>   1</c></rc>
    <rc><c>Te</c><c>   1</c></rc>
    <rc><c>Te</c><c>   1</c></rc>
    <rc><c>Te</c><c>   1</c></rc>
    <rc><c>Te</c><c>   1</c></rc>
    <rc><c>Te</c><c>   1</c></rc>
    <rc><c>Mo</c><c>   2</c></rc>
    <rc><c>Mo</c><c>   2</c></rc>
    <rc><c>Mo</c><c>   2</c></rc>
    <rc><c>Mo</c><c>   2</c></rc>
    <rc><c>Li</c><c>   3</c></rc>
   </set>
  </array>
  <array name="atomtypes" >
   <dimension dim="1">type</dimension>
   <field type="int">atomspertype</field>
   <field type="string">element</field>
   <field>mass</field>
   <field>valence</field>
   <field type="string">pseudopotential</field>
   <set>
    <rc><c>   8</c><c>Te</c><c>    127.60000000</c><c>      6.00000000</c><c>  PAW_PBE Te 08Apr2002                  </c></rc>
    <rc><c>   4</c><c>Mo</c><c>     95.94000000</c><c>      6.00000000</c><c>  PAW_PBE Mo 08Apr2002                  </c></rc>
    <rc><c>   1</c><c>Li</c><c>      7.01000000</c><c>      1.00000000</c><c>  PAW_PBE Li 17Jan2003                  </c></rc>
   </set>
  </array>
 </atominfo>
 <structure name="initialpos" >
  <crystal>
   <varray name="basis" >
    <v>       3.50344967       0.00000000       0.00000000 </v>
    <v>       0.00000000       6.06808850       0.00000000 </v>
    <v>       0.00000000       0.00000000      35.00000000 </v>
   </varray>
   <i name="volume">    744.07349355 </i>
   <varray name="rec_basis" >
    <v>       0.28543296       0.00000000       0.00000000 </v>
    <v>       0.00000000       0.16479654       0.00000000 </v>
    <v>       0.00000000       0.00000000       0.02857143 </v>
   </varray>
  </crystal>
  <varray name="positions" >
   <v>       0.00000000       0.66666212       0.16114054 </v>
   <v>       0.00000000       0.66666230       0.05820024 </v>
   <v>       0.50000000       0.16666212       0.16114054 </v>
   <v>       0.50000000       0.16666230       0.05820024 </v>
   <v>       0.00000000       0.33333770       0.38027533 </v>
   <v>       0.00000000       0.33333788       0.27733503 </v>
   <v>       0.50000000       0.83333770       0.38027533 </v>
   <v>       0.50000000       0.83333788       0.27733503 </v>
   <v>       0.00000000       0.00000066       0.10961466 </v>
   <v>       0.50000000       0.50000066       0.10961466 </v>
   <v>       0.00000000       0.99999934       0.32886091 </v>
   <v>       0.50000000       0.49999934       0.32886091 </v>
   <v>       0.50000000       0.50000000       0.45000000 </v>
  </varray>
 </structure>
 <calculation>
  <scstep>
   <time name="dav">   10.10   10.10</time>
   <time name="total">   12.70   12.72</time>
   <energy>
    <i name="alphaZ">     48.55020401 </i>
    <i name="ewald">  20062.23821070 </i>
    <i name="hartreedc"> -22611.09478662 </i>
    <i name="XCdc">   -358.43414237 </i>
    <i name="pawpsdc">   2639.71816464 </i>
    <i name="pawaedc">  -2476.57733713 </i>
    <i name="eentropy">      0.00000000 </i>
    <i name="bandstr">    121.71462737 </i>
    <i name="atom">   2661.52855728 </i>
    <i name="e_fr_energy">     87.64349789 </i>
    <i name="e_wo_entrp">     87.64349789 </i>
    <i name="e_0_energy">     87.64349789 </i>
   </energy>
  </scstep>
  <scstep>
   <time name="dav">   12.74   12.78</time>
   <time name="total">   12.78   12.81</time>
   <energy>
    <i name="e_fr_energy">   -378.60619105 </i>
    <i name="e_wo_entrp">   -378.60619105 </i>
    <i name="e_0_energy">   -378.60619105 </i>
   </energy>
  </scstep>
  <scstep>
   <time name="dav">   11.13   11.14</time>
   <time name="total">   11.17   11.17</time>
   <energy>
    <i name="e_fr_energy">   -434.86156374 </i>
    <i name="e_wo_entrp">   -434.86156374 </i>
    <i name="e_0_energy">   -434.86156374 </i>
   </energy>
  </scstep>
  <scstep>
   <time name="dav">   13.85   13.88</time>
   <time name="total">   13.88   13.91</time>
   <energy>
    <i name="e_fr_energy">   -438.32168154 </i>
    <i name="e_wo_entrp">   -438.32168154 </i>
    <i name="e_0_energy">   -438.32168154 </i>
   </energy>
  </scstep>
  <scstep>
   <time name="dav">   13.01   13.01</time>
   <time name="total">   14.73   14.73</time>
   <energy>
    <i name="e_fr_energy">   -438.41704585 </i>
    <i name="e_wo_entrp">   -438.41704585 </i>
    <i name="e_0_energy">   -438.41704585 </i>
   </energy>
  </scstep>
  <scstep>
   <time name="dav">   11.99   12.02</time>
   <time name="total">   16.18   16.21</time>
   <energy>
    <i name="e_fr_energy">   -441.58359642 </i>
    <i name="e_wo_entrp">   -441.58359642 </i>
    <i name="e_0_energy">   -441.58359642 </i>
   </energy>
  </scstep>
  <scstep>
   <time name="dav">   12.73   12.73</time>
   <time name="total">   16.93   16.92</time>
   <energy>
    <i name="e_fr_energy">   -443.40455149 </i>
    <i name="e_wo_entrp">   -443.40455149 </i>
    <i name="e_0_energy">   -443.40455149 </i>
   </energy>
  </scstep>
  <scstep>
   <time name="dav">   12.95   12.98</time>
   <time name="total">   17.16   17.19</time>
   <energy>
    <i name="e_fr_energy">   -440.72033009 </i>
    <i name="e_wo_entrp">   -440.72033009 </i>
    <i name="e_0_energy">   -440.72033009 </i>
   </energy>
  </scstep>
  <scstep>
   <time name="dav">   12.39   12.57</time>
   <time name="total">   16.59   16.77</time>
   <energy>
    <i name="e_fr_energy">   -440.82285991 </i>
    <i name="e_wo_entrp">   -440.82285991 </i>
    <i name="e_0_energy">   -440.82285991 </i>
   </energy>
  </scstep>
  <scstep>
   <time name="dav">   12.26   12.29</time>
   <time name="total">   16.46   16.49</time>
   <energy>
    <i name="e_fr_energy">   -440.71423355 </i>
    <i name="e_wo_entrp">   -440.71423355 </i>
    <i name="e_0_energy">   -440.71423355 </i>
   </energy>
  </scstep>
  <scstep>
   <time name="dav">   11.82   11.82</time>
   <time name="total">   16.01   16.01</time>
   <energy>
    <i name="e_fr_energy">   -440.69120262 </i>
    <i name="e_wo_entrp">   -440.69120262 </i>
    <i name="e_0_energy">   -440.69120262 </i>
   </energy>
  </scstep>
  <scstep>
   <time name="dav">   12.77   12.81</time>
   <time name="total">   16.95   16.98</time>
   <energy>
    <i name="e_fr_energy">   -440.69313775 </i>
    <i name="e_wo_entrp">   -440.69313775 </i>
    <i name="e_0_energy">   -440.69313775 </i>
   </energy>
  </scstep>
  <scstep>
   <time name="dav">   12.65   12.65</time>
   <time name="total">   16.84   16.84</time>
   <energy>
    <i name="e_fr_energy">   -440.69439943 </i>
    <i name="e_wo_entrp">   -440.69439943 </i>
    <i name="e_0_energy">   -440.69439943 </i>
   </energy>
  </scstep>
  <scstep>
   <time name="dav">   12.71   12.71</time>
   <time name="total">   17.00   17.03</time>
   <energy>
    <i name="e_fr_energy">   -440.69178525 </i>
    <i name="e_wo_entrp">   -440.69178525 </i>
    <i name="e_0_energy">   -440.69178525 </i>
   </energy>
  </scstep>
  <scstep>
   <time name="dav">   10.87   10.86</time>
   <time name="total">   15.07   15.09</time>
   <energy>
    <i name="e_fr_energy">   -440.68918778 </i>
    <i name="e_wo_entrp">   -440.68918778 </i>
    <i name="e_0_energy">   -440.68918778 </i>
   </energy>
  </scstep>
  <scstep>
   <time name="dav">   11.06   11.05</time>
   <time name="total">   15.35   15.38</time>
   <energy>
    <i name="e_fr_energy">   -440.68947668 </i>
    <i name="e_wo_entrp">   -440.68947668 </i>
    <i name="e_0_energy">   -440.68947668 </i>
   </energy>
  </scstep>
  <scstep>
   <time name="dav">   12.26   12.26</time>
   <time name="total">   16.51   16.54</time>
   <energy>
    <i name="e_fr_energy">   -440.68900614 </i>
    <i name="e_wo_entrp">   -440.68900614 </i>
    <i name="e_0_energy">   -440.68900614 </i>
   </energy>
  </scstep>
  <scstep>
   <time name="dav">   11.24   11.23</time>
   <time name="total">   15.44   15.44</time>
   <energy>
    <i name="e_fr_energy">   -440.68950507 </i>
    <i name="e_wo_entrp">   -440.68950507 </i>
    <i name="e_0_energy">   -440.68950507 </i>
   </energy>
  </scstep>
  <scstep>
   <time name="dav">   11.18   11.18</time>
   <time name="total">   15.47   15.47</time>
   <energy>
    <i name="e_fr_energy">   -440.69039801 </i>
    <i name="e_wo_entrp">   -440.69039801 </i>
    <i name="e_0_energy">   -440.69039801 </i>
   </energy>
  </scstep>
  <scstep>
   <time name="dav">   10.19   10.19</time>
   <time name="total">   14.38   14.41</time>
   <energy>
    <i name="e_fr_energy">   -440.69077659 </i>
    <i name="e_wo_entrp">   -440.69077659 </i>
    <i name="e_0_energy">   -440.69077659 </i>
   </energy>
  </scstep>
  <scstep>
   <time name="dav">    9.64    9.64</time>
   <time name="total">   13.85   13.85</time>
   <energy>
    <i name="e_fr_energy">   -440.69062890 </i>
    <i name="e_wo_entrp">   -440.69062890 </i>
    <i name="e_0_energy">   -440.69062890 </i>
   </energy>
  </scstep>
  <scstep>
   <time name="dav">    8.79    8.79</time>
   <time name="total">   13.08   13.10</time>
   <energy>
    <i name="e_fr_energy">   -440.69045605 </i>
    <i name="e_wo_entrp">   -440.69045605 </i>
    <i name="e_0_energy">   -440.69045605 </i>
   </energy>
  </scstep>
  <scstep>
   <time name="dav">   11.86   11.86</time>
   <time name="total">   16.05   16.05</time>
   <energy>
    <i name="e_fr_energy">   -440.69082845 </i>
    <i name="e_wo_entrp">   -440.69082845 </i>
    <i name="e_0_energy">   -440.69082845 </i>
   </energy>
  </scstep>
  <scstep>
   <time name="dav">   10.63   10.66</time>
   <time name="total">   14.84   14.87</time>
   <energy>
    <i name="e_fr_energy">   -440.69095664 </i>
    <i name="e_wo_entrp">   -440.69095664 </i>
    <i name="e_0_energy">   -440.69095664 </i>
   </energy>
  </scstep>
  <scstep>
   <time name="dav">    9.45    9.45</time>
   <time name="total">   11.95   11.95</time>
   <energy>
    <i name="alphaZ">     48.55020401 </i>
    <i name="ewald">  20062.23821070 </i>
    <i name="hartreedc"> -22668.14327366 </i>
    <i name="XCdc">   -375.33930329 </i>
    <i name="pawpsdc">   5403.87283802 </i>
    <i name="pawaedc">  -5250.22994897 </i>
    <i name="eentropy">      0.00000000 </i>
    <i name="bandstr">   -323.16822532 </i>
    <i name="atom">   2661.52855728 </i>
    <i name="e_fr_energy">   -440.69094122 </i>
    <i name="e_wo_entrp">   -440.69094122 </i>
    <i name="e_0_energy">   -440.69094122 </i>
   </energy>
  </scstep>
  <structure>
   <crystal>
    <varray name="basis" >
     <v>       3.50344967       0.00000000       0.00000000 </v>
     <v>       0.00000000       6.06808850       0.00000000 </v>
     <v>       0.00000000       0.00000000      35.00000000 </v>
    </varray>
    <i name="volume">    744.07349355 </i>
    <varray name="rec_basis" >
     <v>       0.28543296       0.00000000       0.00000000 </v>
     <v>       0.00000000       0.16479654       0.00000000 </v>
     <v>       0.00000000       0.00000000       0.02857143 </v>
    </varray>
   </crystal>
   <varray name="positions" >
    <v>       0.00000000       0.66666212       0.16114054 </v>
    <v>       0.00000000       0.66666230       0.05820024 </v>
    <v>       0.50000000       0.16666212       0.16114054 </v>
    <v>       0.50000000       0.16666230       0.05820024 </v>
    <v>       0.00000000       0.33333770       0.38027533 </v>
    <v>       0.00000000       0.33333788       0.27733503 </v>
    <v>       0.50000000       0.83333770       0.38027533 </v>
    <v>       0.50000000       0.83333788       0.27733503 </v>
    <v>       0.00000000       0.00000066       0.10961466 </v>
    <v>       0.50000000       0.50000066       0.10961466 </v>
    <v>       0.00000000       0.99999934       0.32886091 </v>
    <v>       0.50000000       0.49999934       0.32886091 </v>
    <v>       0.50000000       0.50000000       0.45000000 </v>
   </varray>
  </structure>
  <varray name="forces" >
   <v>       0.00000000       0.00378206      -0.00689739 </v>
   <v>       0.00000000      -0.00044838       0.04109758 </v>
   <v>       0.00000000      -0.00068402      -0.00166524 </v>
   <v>       0.00000000       0.00062037       0.04294630 </v>
   <v>       0.00000000      -0.03269020       0.26563604 </v>
   <v>       0.00000000      -0.00111631      -0.10815132 </v>
   <v>       0.00000000      -0.01270829       0.31338771 </v>
   <v>       0.00000000      -0.02276778      -0.01693846 </v>
   <v>       0.00000000      -0.00316585       0.02768259 </v>
   <v>       0.00000000       0.00014274       0.03607187 </v>
   <v>       0.00000000      -0.06389924      -0.28601529 </v>
   <v>       0.00000000       0.08149680       0.05837591 </v>
   <v>       0.00000000       0.05143811      -0.36553030 </v>
  </varray>
  <varray name="stress" >
   <v>      -2.28294403       0.00000000       0.00000000 </v>
   <v>       0.00000000      -1.15657046       0.38230572 </v>
   <v>       0.00000000       0.38215526      -6.04210436 </v>
  </varray>
  <energy>
   <i name="e_fr_energy">   -440.69094122 </i>
   <i name="e_wo_entrp">   -440.69094122 </i>
   <i name="e_0_energy">      0.00000000 </i>
  </energy>
  <time name="totalsc">  415.10  415.97</time>
  <eigenvalues>
   <array>
    <dimension dim="1">band</dimension>
    <dimension dim="2">kpoint</dimension>
    <dimension dim="3">spin</dimension>
    <field>eigene</field>
    <field>occ</field>
    <set>
     <set comment="spin 1">
      <set comment="kpoint 1">
       <r>  -13.2821    1.0000 </r>
       <r>  -13.0175    1.0000 </r>
       <r>  -12.3020    1.0000 </r>
       <r>  -12.0404    1.0000 </r>
       <r>  -11.1629    1.0000 </r>
       <r>  -10.8857    1.0000 </r>
       <r>  -10.7470    1.0000 </r>
       <r>  -10.5467    1.0000 </r>
       <r>   -5.8436    1.0000 </r>
       <r>   -5.5829    1.0000 </r>
       <r>   -5.5672    1.0000 </r>
       <r>   -5.1398    1.0000 </r>
       <r>   -4.9241    1.0000 </r>
       <r>   -4.6686    1.0000 </r>
       <r>   -3.7282    1.0000 </r>
       <r>   -3.4137    1.0000 </r>
       <r>   -2.5162    1.0000 </r>
       <r>   -2.4232    1.0000 </r>
       <r>   -2.2326    1.0000 </r>
       <r>   -2.0527    1.0000 </r>
       <r>   -1.7239    1.0000 </r>
       <r>   -1.6956    1.0000 </r>
       <r>   -1.6657    1.0000 </r>
       <r>   -1.5988    1.0000 </r>
       <r>   -1.5530    1.0000 </r>
       <r>   -1.5016    1.0000 </r>
       <r>   -0.9934    1.0000 </r>
       <r>   -0.9010    1.0000 </r>
       <r>   -0.8937    1.0000 </r>
       <r>   -0.7865    1.0000 </r>
       <r>   -0.7463    1.0000 </r>
       <r>   -0.7387    1.0000 </r>
       <r>   -0.6681    1.0000 </r>
       <r>   -0.2665    1.0000 </r>
       <r>   -0.2487    1.0000 </r>
       <r>   -0.0335    1.0000 </r>
       <r>    1.0549    1.0000 </r>
       <r>    1.6653    0.0000 </r>
       <r>    1.8117    0.0000 </r>
       <r>    1.8503    0.0000 </r>
       <r>    2.1165    0.0000 </r>
       <r>    3.0881    0.0000 </r>
       <r>    3.2606    0.0000 </r>
       <r>    3.3546    0.0000 </r>
      </set>
      <set comment="kpoint 2">
       <r>  -13.2271    1.0000 </r>
       <r>  -12.9623    1.0000 </r>
       <r>  -12.2607    1.0000 </r>
       <r>  -12.0000    1.0000 </r>
       <r>  -11.1342    1.0000 </r>
       <r>  -10.8567    1.0000 </r>
       <r>  -10.7228    1.0000 </r>
       <r>  -10.5233    1.0000 </r>
       <r>   -5.7814    1.0000 </r>
       <r>   -5.5218    1.0000 </r>
       <r>   -5.5035    1.0000 </r>
       <r>   -5.0799    1.0000 </r>
       <r>   -4.8999    1.0000 </r>
       <r>   -4.6510    1.0000 </r>
       <r>   -3.7079    1.0000 </r>
       <r>   -3.3913    1.0000 </r>
       <r>   -2.5825    1.0000 </r>
       <r>   -2.5202    1.0000 </r>
       <r>   -2.3450    1.0000 </r>
       <r>   -2.0225    1.0000 </r>
       <r>   -1.8510    1.0000 </r>
       <r>   -1.7866    1.0000 </r>
       <r>   -1.6785    1.0000 </r>
       <r>   -1.6236    1.0000 </r>
       <r>   -1.5888    1.0000 </r>
       <r>   -1.4541    1.0000 </r>
       <r>   -1.2787    1.0000 </r>
       <r>   -1.0694    1.0000 </r>
       <r>   -0.9737    1.0000 </r>
       <r>   -0.9399    1.0000 </r>
       <r>   -0.8133    1.0000 </r>
       <r>   -0.8021    1.0000 </r>
       <r>   -0.5957    1.0000 </r>
       <r>   -0.2636    1.0000 </r>
       <r>   -0.2389    1.0000 </r>
       <r>   -0.0310    1.0000 </r>
       <r>    1.1018    1.0372 </r>
       <r>    1.6477    0.0000 </r>
       <r>    1.8231    0.0000 </r>
       <r>    1.9147    0.0000 </r>
       <r>    2.1588    0.0000 </r>
       <r>    2.9695    0.0000 </r>
       <r>    3.1293    0.0000 </r>
       <r>    3.2610    0.0000 </r>
      </set>
      <set comment="kpoint 3">
       <r>  -13.1185    1.0000 </r>
       <r>  -12.8531    1.0000 </r>
       <r>  -12.1791    1.0000 </r>
       <r>  -11.9203    1.0000 </r>
       <r>  -11.0802    1.0000 </r>
       <r>  -10.8020    1.0000 </r>
       <r>  -10.6776    1.0000 </r>
       <r>  -10.4797    1.0000 </r>
       <r>   -5.6593    1.0000 </r>
       <r>   -5.4026    1.0000 </r>
       <r>   -5.3780    1.0000 </r>
       <r>   -4.9648    1.0000 </r>
       <r>   -4.8562    1.0000 </r>
       <r>   -4.6219    1.0000 </r>
       <r>   -3.6740    1.0000 </r>
       <r>   -3.3537    1.0000 </r>
       <r>   -2.7571    1.0000 </r>
       <r>   -2.6133    1.0000 </r>
       <r>   -2.5197    1.0000 </r>
       <r>   -2.0990    1.0000 </r>
       <r>   -2.0362    1.0000 </r>
       <r>   -1.9520    1.0000 </r>
       <r>   -1.9144    1.0000 </r>
       <r>   -1.7856    1.0000 </r>
       <r>   -1.5845    1.0000 </r>
       <r>   -1.5429    1.0000 </r>
       <r>   -1.5345    1.0000 </r>
       <r>   -1.3639    1.0000 </r>
       <r>   -1.1403    1.0000 </r>
       <r>   -0.9823    1.0000 </r>
       <r>   -0.9728    1.0000 </r>
       <r>   -0.8105    1.0000 </r>
       <r>   -0.5372    1.0000 </r>
       <r>   -0.2525    1.0000 </r>
       <r>   -0.2401    1.0000 </r>
       <r>   -0.0202    1.0000 </r>
       <r>    1.1819    0.1157 </r>
       <r>    1.6160    0.0000 </r>
       <r>    1.8222    0.0000 </r>
       <r>    2.0059    0.0000 </r>
       <r>    2.2620    0.0000 </r>
       <r>    2.5858    0.0000 </r>
       <r>    2.7747    0.0000 </r>
       <r>    2.8283    0.0000 </r>
      </set>
      <set comment="kpoint 4">
       <r>  -12.9587    1.0000 </r>
       <r>  -12.6926    1.0000 </r>
       <r>  -12.0591    1.0000 </r>
       <r>  -11.8033    1.0000 </r>
       <r>  -11.0082    1.0000 </r>
       <r>  -10.7289    1.0000 </r>
       <r>  -10.6176    1.0000 </r>
       <r>  -10.4221    1.0000 </r>
       <r>   -5.4832    1.0000 </r>
       <r>   -5.2318    1.0000 </r>
       <r>   -5.1957    1.0000 </r>
       <r>   -4.8284    1.0000 </r>
       <r>   -4.7794    1.0000 </r>
       <r>   -4.5932    1.0000 </r>
       <r>   -3.6423    1.0000 </r>
       <r>   -3.3189    1.0000 </r>
       <r>   -2.9642    1.0000 </r>
       <r>   -2.7271    1.0000 </r>
       <r>   -2.7072    1.0000 </r>
       <r>   -2.4752    1.0000 </r>
       <r>   -2.4114    1.0000 </r>
       <r>   -2.2366    1.0000 </r>
       <r>   -2.1739    1.0000 </r>
       <r>   -2.1590    1.0000 </r>
       <r>   -1.9413    1.0000 </r>
       <r>   -1.5771    1.0000 </r>
       <r>   -1.4435    1.0000 </r>
       <r>   -1.3928    1.0000 </r>
       <r>   -1.2457    1.0000 </r>
       <r>   -1.2353    1.0000 </r>
       <r>   -1.0112    1.0000 </r>
       <r>   -0.8178    1.0000 </r>
       <r>   -0.5198    1.0000 </r>
       <r>   -0.2811    1.0000 </r>
       <r>   -0.2108    1.0000 </r>
       <r>    0.0098    1.0000 </r>
       <r>    1.2582    0.0000 </r>
       <r>    1.5611    0.0000 </r>
       <r>    1.7647    0.0000 </r>
       <r>    2.1082    0.0000 </r>
       <r>    2.2421    0.0000 </r>
       <r>    2.3446    0.0000 </r>
       <r>    2.4109    0.0000 </r>
       <r>    2.4919    0.0000 </r>
      </set>
      <set comment="kpoint 5">
       <r>  -12.7519    1.0000 </r>
       <r>  -12.4849    1.0000 </r>
       <r>  -11.9042    1.0000 </r>
       <r>  -11.6523    1.0000 </r>
       <r>  -10.9297    1.0000 </r>
       <r>  -10.6491    1.0000 </r>
       <r>  -10.5531    1.0000 </r>
       <r>  -10.3602    1.0000 </r>
       <r>   -5.2652    1.0000 </r>
       <r>   -5.0210    1.0000 </r>
       <r>   -4.9672    1.0000 </r>
       <r>   -4.7831    1.0000 </r>
       <r>   -4.5898    1.0000 </r>
       <r>   -4.5797    1.0000 </r>
       <r>   -3.6557    1.0000 </r>
       <r>   -3.3443    1.0000 </r>
       <r>   -3.1508    1.0000 </r>
       <r>   -3.0055    1.0000 </r>
       <r>   -2.8715    1.0000 </r>
       <r>   -2.8504    1.0000 </r>
       <r>   -2.8058    1.0000 </r>
       <r>   -2.6986    1.0000 </r>
       <r>   -2.6099    1.0000 </r>
       <r>   -2.3868    1.0000 </r>
       <r>   -1.9741    1.0000 </r>
       <r>   -1.7908    1.0000 </r>
       <r>   -1.6268    1.0000 </r>
       <r>   -1.5947    1.0000 </r>
       <r>   -1.3290    1.0000 </r>
       <r>   -1.1372    1.0000 </r>
       <r>   -1.0266    1.0000 </r>
       <r>   -0.8272    1.0000 </r>
       <r>   -0.5447    1.0000 </r>
       <r>   -0.3671    1.0000 </r>
       <r>   -0.1387    1.0000 </r>
       <r>    0.0687    1.0000 </r>
       <r>    1.2646    0.0000 </r>
       <r>    1.4801    0.0000 </r>
       <r>    1.6641    0.0000 </r>
       <r>    1.9413    0.0000 </r>
       <r>    2.0460    0.0000 </r>
       <r>    2.1580    0.0000 </r>
       <r>    2.2824    0.0000 </r>
       <r>    2.2930    0.0000 </r>
      </set>
      <set comment="kpoint 6">
       <r>  -12.5043    1.0000 </r>
       <r>  -12.2360    1.0000 </r>
       <r>  -11.7192    1.0000 </r>
       <r>  -11.4724    1.0000 </r>
       <r>  -10.8614    1.0000 </r>
       <r>  -10.5794    1.0000 </r>
       <r>  -10.4979    1.0000 </r>
       <r>  -10.3076    1.0000 </r>
       <r>   -5.0361    1.0000 </r>
       <r>   -4.7985    1.0000 </r>
       <r>   -4.7740    1.0000 </r>
       <r>   -4.7181    1.0000 </r>
       <r>   -4.5902    1.0000 </r>
       <r>   -4.3803    1.0000 </r>
       <r>   -3.8372    1.0000 </r>
       <r>   -3.5827    1.0000 </r>
       <r>   -3.3141    1.0000 </r>
       <r>   -3.2509    1.0000 </r>
       <r>   -3.2032    1.0000 </r>
       <r>   -3.0412    1.0000 </r>
       <r>   -2.9735    1.0000 </r>
       <r>   -2.9577    1.0000 </r>
       <r>   -2.9439    1.0000 </r>
       <r>   -2.6408    1.0000 </r>
       <r>   -2.2130    1.0000 </r>
       <r>   -2.0098    1.0000 </r>
       <r>   -1.9996    1.0000 </r>
       <r>   -1.6845    1.0000 </r>
       <r>   -1.3691    1.0000 </r>
       <r>   -1.1512    1.0000 </r>
       <r>   -1.0298    1.0000 </r>
       <r>   -0.7933    1.0000 </r>
       <r>   -0.5601    1.0000 </r>
       <r>   -0.4674    1.0000 </r>
       <r>   -0.0535    1.0000 </r>
       <r>    0.1451    1.0000 </r>
       <r>    1.1905    0.0660 </r>
       <r>    1.3807    0.0000 </r>
[...]
       <r>  -11.3212    1.0000 </r>
       <r>  -11.1730    1.0000 </r>
       <r>  -11.0247    1.0000 </r>
       <r>  -10.9102    1.0000 </r>
       <r>  -10.8452    1.0000 </r>
       <r>  -10.7583    1.0000 </r>
       <r>  -10.6363    1.0000 </r>
       <r>  -10.5592    1.0000 </r>
       <r>   -5.7440    1.0000 </r>
       <r>   -5.6248    1.0000 </r>
       <r>   -5.4625    1.0000 </r>
       <r>   -5.3734    1.0000 </r>
       <r>   -4.8823    1.0000 </r>
       <r>   -4.7543    1.0000 </r>
       <r>   -4.6042    1.0000 </r>
       <r>   -4.5057    1.0000 </r>
       <r>   -3.7973    1.0000 </r>
       <r>   -3.6912    1.0000 </r>
       <r>   -3.4386    1.0000 </r>
       <r>   -3.4043    1.0000 </r>
       <r>   -2.5069    1.0000 </r>
       <r>   -2.3640    1.0000 </r>
       <r>   -2.3013    1.0000 </r>
       <r>   -2.1749    1.0000 </r>
       <r>   -2.1005    1.0000 </r>
       <r>   -1.9594    1.0000 </r>
       <r>   -1.5878    1.0000 </r>
       <r>   -1.5649    1.0000 </r>
       <r>   -1.1999    1.0000 </r>
       <r>   -1.0277    1.0000 </r>
       <r>   -0.9836    1.0000 </r>
       <r>   -0.7826    1.0000 </r>
       <r>   -0.3294    1.0000 </r>
       <r>   -0.2727    1.0000 </r>
       <r>   -0.0971    1.0000 </r>
       <r>   -0.0507    1.0000 </r>
       <r>    1.5840    0.0000 </r>
       <r>    1.6833    0.0000 </r>
       <r>    1.7182    0.0000 </r>
       <r>    1.8155    0.0000 </r>
       <r>    1.8568    0.0000 </r>
       <r>    1.8697    0.0000 </r>
       <r>    2.0237    0.0000 </r>
       <r>    2.1109    0.0000 </r>
      </set>
      <set comment="kpoint 50">
       <r>  -11.2142    1.0000 </r>
       <r>  -11.1104    1.0000 </r>
       <r>  -10.9008    1.0000 </r>
       <r>  -10.8607    1.0000 </r>
       <r>  -10.7633    1.0000 </r>
       <r>  -10.7232    1.0000 </r>
       <r>  -10.5568    1.0000 </r>
       <r>  -10.5301    1.0000 </r>
       <r>   -5.8824    1.0000 </r>
       <r>   -5.7959    1.0000 </r>
       <r>   -5.5870    1.0000 </r>
       <r>   -5.5554    1.0000 </r>
       <r>   -4.9853    1.0000 </r>
       <r>   -4.8905    1.0000 </r>
       <r>   -4.6898    1.0000 </r>
       <r>   -4.6557    1.0000 </r>
       <r>   -3.7752    1.0000 </r>
       <r>   -3.6801    1.0000 </r>
       <r>   -3.4176    1.0000 </r>
       <r>   -3.4073    1.0000 </r>
       <r>   -2.4512    1.0000 </r>
       <r>   -2.4060    1.0000 </r>
       <r>   -2.2573    1.0000 </r>
       <r>   -2.2165    1.0000 </r>
       <r>   -2.1387    1.0000 </r>
       <r>   -1.9809    1.0000 </r>
       <r>   -1.6114    1.0000 </r>
       <r>   -1.5872    1.0000 </r>
       <r>   -1.0324    1.0000 </r>
       <r>   -0.9653    1.0000 </r>
       <r>   -0.7919    1.0000 </r>
       <r>   -0.7186    1.0000 </r>
       <r>   -0.2745    1.0000 </r>
       <r>   -0.2533    1.0000 </r>
       <r>   -0.0389    1.0000 </r>
       <r>   -0.0246    1.0000 </r>
       <r>    1.6452    0.0000 </r>
       <r>    1.6636    0.0000 </r>
       <r>    1.7933    0.0000 </r>
       <r>    1.8100    0.0000 </r>
       <r>    1.8200    0.0000 </r>
       <r>    1.8593    0.0000 </r>
       <r>    2.1036    0.0000 </r>
       <r>    2.1378    0.0000 </r>
      </set>
     </set>
    </set>
   </array>
  </eigenvalues>
  <separator name="orbital magnetization" >
   <v name="MAGDIPOLOUT">      0.00000000      0.00000000      0.00000000</v>
  </separator>
  <dos>
   <i name="efermi">      1.15553962 </i>
   <total>
    <array>
     <dimension dim="1">gridpoints</dimension>
     <dimension dim="2">spin</dimension>
     <field>energy</field>
     <field>total</field>
     <field>integrated</field>
     <set>
      <set comment="spin 1">
       <r>   -14.1139     0.0000     0.0000 </r>
       <r>   -14.0529     0.0000     0.0000 </r>
       <r>   -13.9919     0.0000     0.0000 </r>
       <r>   -13.9309     0.0000     0.0000 </r>
       <r>   -13.8699     0.0000     0.0000 </r>
       <r>   -13.8089     0.0000     0.0000 </r>
       <r>   -13.7479     0.0000     0.0000 </r>
       <r>   -13.6869     0.0000     0.0000 </r>
       <r>   -13.6259     0.0000     0.0000 </r>
       <r>   -13.5649     0.0000     0.0000 </r>
       <r>   -13.5039     0.0000     0.0000 </r>
       <r>   -13.4429     0.0000     0.0000 </r>
       <r>   -13.3819     0.0000     0.0000 </r>
       <r>   -13.3209     0.0000     0.0000 </r>
       <r>   -13.2599     0.8598     0.0266 </r>
       <r>   -13.1989     0.9673     0.0890 </r>
       <r>   -13.1379     1.0167     0.1486 </r>
       <r>   -13.0769     1.0492     0.2116 </r>
       <r>   -13.0159     1.6612     0.2847 </r>
       <r>   -12.9549     2.0750     0.4045 </r>
       <r>   -12.8939     2.0165     0.5279 </r>
       <r>   -12.8329     2.0868     0.6545 </r>
       <r>   -12.7719     2.0821     0.7821 </r>
       <r>   -12.7109     2.1241     0.9100 </r>
       <r>   -12.6499     2.1435     1.0400 </r>
       <r>   -12.5889     2.5303     1.1843 </r>
       <r>   -12.5279     2.1927     1.3298 </r>
       <r>   -12.4669     2.1232     1.4618 </r>
       <r>   -12.4059     2.0255     1.5872 </r>
       <r>   -12.3449     2.0214     1.7105 </r>
       <r>   -12.2839     3.4030     1.8814 </r>
       <r>   -12.2229     3.8676     2.1213 </r>
       <r>   -12.1619     3.7005     2.3484 </r>
       <r>   -12.1009     3.6867     2.5738 </r>
       <r>   -12.0399     4.6747     2.8135 </r>
       <r>   -11.9789     5.5693     3.1456 </r>
       <r>   -11.9179     5.5236     3.4822 </r>
       <r>   -11.8569     5.4233     3.8502 </r>
       <r>   -11.7959     4.6501     4.1495 </r>
       <r>   -11.7349     5.7699     4.4874 </r>
       <r>   -11.6739     5.4186     4.8238 </r>
       <r>   -11.6129     6.0139     5.1705 </r>
       <r>   -11.5519     6.1885     5.5444 </r>
       <r>   -11.4909     6.6810     5.9808 </r>
       <r>   -11.4299     6.7789     6.3922 </r>
       <r>   -11.3689     6.9021     6.8074 </r>
       <r>   -11.3079     7.5361     7.2694 </r>
       <r>   -11.2469     8.4745     7.7861 </r>
       <r>   -11.1859     8.0401     8.2970 </r>
       <r>   -11.1249     9.5828     8.8610 </r>
       <r>   -11.0639    10.1892     9.5096 </r>
       <r>   -11.0029     9.3533    10.1112 </r>
       <r>   -10.9419     9.1402    10.6806 </r>
       <r>   -10.8809    10.6902    11.2942 </r>
       <r>   -10.8199    16.2458    12.1614 </r>
       <r>   -10.7589     6.3639    12.7148 </r>
       <r>   -10.6979     9.9332    13.2908 </r>
       <r>   -10.6369    10.0023    13.8947 </r>
       <r>   -10.5759     8.9115    14.5208 </r>
       <r>   -10.5149     7.1154    15.0509 </r>
       <r>   -10.4539     3.7778    15.4764 </r>
       <r>   -10.3929     3.0721    15.6858 </r>
       <r>   -10.3319     2.9301    15.8658 </r>
       <r>   -10.2709     0.0000    16.0000 </r>
       <r>   -10.2099     0.0000    16.0000 </r>
       <r>   -10.1489     0.0000    16.0000 </r>
       <r>   -10.0878     0.0000    16.0000 </r>
       <r>   -10.0268     0.0000    16.0000 </r>
       <r>    -9.9658     0.0000    16.0000 </r>
       <r>    -9.9048     0.0000    16.0000 </r>
       <r>    -9.8438     0.0000    16.0000 </r>
       <r>    -9.7828     0.0000    16.0000 </r>
       <r>    -9.7218     0.0000    16.0000 </r>
       <r>    -9.6608     0.0000    16.0000 </r>
       <r>    -9.5998     0.0000    16.0000 </r>
       <r>    -9.5388     0.0000    16.0000 </r>
       <r>    -9.4778     0.0000    16.0000 </r>
       <r>    -9.4168     0.0000    16.0000 </r>
       <r>    -9.3558     0.0000    16.0000 </r>
       <r>    -9.2948     0.0000    16.0000 </r>
       <r>    -9.2338     0.0000    16.0000 </r>
       <r>    -9.1728     0.0000    16.0000 </r>
       <r>    -9.1118     0.0000    16.0000 </r>
       <r>    -9.0508     0.0000    16.0000 </r>
       <r>    -8.9898     0.0000    16.0000 </r>
       <r>    -8.9288     0.0000    16.0000 </r>
       <r>    -8.8678     0.0000    16.0000 </r>
       <r>    -8.8068     0.0000    16.0000 </r>
       <r>    -8.7458     0.0000    16.0000 </r>
       <r>    -8.6848     0.0000    16.0000 </r>
       <r>    -8.6238     0.0000    16.0000 </r>
       <r>    -8.5628     0.0000    16.0000 </r>
       <r>    -8.5018     0.0000    16.0000 </r>
       <r>    -8.4408     0.0000    16.0000 </r>
       <r>    -8.3798     0.0000    16.0000 </r>
       <r>    -8.3188     0.0000    16.0000 </r>
       <r>    -8.2578     0.0000    16.0000 </r>
       <r>    -8.1968     0.0000    16.0000 </r>
       <r>    -8.1358     0.0000    16.0000 </r>
       <r>    -8.0748     0.0000    16.0000 </r>
       <r>    -8.0138     0.0000    16.0000 </r>
       <r>    -7.9528     0.0000    16.0000 </r>
       <r>    -7.8918     0.0000    16.0000 </r>
       <r>    -7.8308     0.0000    16.0000 </r>
       <r>    -7.7698     0.0000    16.0000 </r>
       <r>    -7.7088     0.0000    16.0000 </r>
       <r>    -7.6478     0.0000    16.0000 </r>
       <r>    -7.5868     0.0000    16.0000 </r>
       <r>    -7.5258     0.0000    16.0000 </r>
       <r>    -7.4648     0.0000    16.0000 </r>
       <r>    -7.4038     0.0000    16.0000 </r>
       <r>    -7.3428     0.0000    16.0000 </r>
       <r>    -7.2818     0.0000    16.0000 </r>
       <r>    -7.2208     0.0000    16.0000 </r>
       <r>    -7.1598     0.0000    16.0000 </r>
       <r>    -7.0988     0.0000    16.0000 </r>
       <r>    -7.0378     0.0000    16.0000 </r>
       <r>    -6.9768     0.0000    16.0000 </r>
       <r>    -6.9158     0.0000    16.0000 </r>
       <r>    -6.8548     0.0000    16.0000 </r>
       <r>    -6.7938     0.0000    16.0000 </r>
       <r>    -6.7328     0.0000    16.0000 </r>
       <r>    -6.6718     0.0000    16.0000 </r>
       <r>    -6.6108     0.0000    16.0000 </r>
       <r>    -6.5498     0.0000    16.0000 </r>
       <r>    -6.4888     0.0000    16.0000 </r>
       <r>    -6.4278     0.0000    16.0000 </r>
       <r>    -6.3668     0.0000    16.0000 </r>
       <r>    -6.3058     0.0000    16.0000 </r>
       <r>    -6.2448     0.0000    16.0000 </r>
       <r>    -6.1838     0.0000    16.0000 </r>
       <r>    -6.1228     0.0000    16.0000 </r>
       <r>    -6.0618     0.0000    16.0000 </r>
       <r>    -6.0008     0.0000    16.0000 </r>
       <r>    -5.9398     0.0000    16.0000 </r>
       <r>    -5.8788     0.3456    16.0112 </r>
       <r>    -5.8178     1.0265    16.0599 </r>
       <r>    -5.7568     1.4931    16.1496 </r>
       <r>    -5.6958     1.5479    16.2431 </r>
       <r>    -5.6348     1.6859    16.3434 </r>
       <r>    -5.5738     2.8331    16.4795 </r>
       <r>    -5.5128     4.2537    16.7294 </r>
       <r>    -5.4518     4.2727    16.9913 </r>
       <r>    -5.3908     4.3300    17.2511 </r>
       <r>    -5.3298     4.5653    17.5209 </r>
       <r>    -5.2688     4.8463    17.8068 </r>
       <r>    -5.2078     5.1776    18.1135 </r>
       <r>    -5.1468     5.5862    18.4420 </r>
       <r>    -5.0858     8.2718    18.8767 </r>
       <r>    -5.0248     7.0542    19.3382 </r>
       <r>    -4.9638     7.7053    19.7863 </r>
       <r>    -4.9028    10.2138    20.3382 </r>
       <r>    -4.8418    10.3069    20.9636 </r>
       <r>    -4.7808    12.3448    21.7505 </r>
       <r>    -4.7198    11.5570    22.4461 </r>
       <r>    -4.6588    13.2294    23.2446 </r>
       <r>    -4.5978    11.1636    24.1102 </r>
       <r>    -4.5368    10.8686    24.9339 </r>
       <r>    -4.4758     7.8154    25.4790 </r>
       <r>    -4.4148     8.0651    25.9874 </r>
       <r>    -4.3537     7.4278    26.4736 </r>
       <r>    -4.2927     7.5568    26.9724 </r>
       <r>    -4.2317     6.4692    27.4049 </r>
       <r>    -4.1707     3.2479    27.6558 </r>
       <r>    -4.1097     3.2865    27.8536 </r>
       <r>    -4.0487     3.3229    28.0652 </r>
       <r>    -3.9877     3.8891    28.2895 </r>
       <r>    -3.9267     4.1272    28.5603 </r>
       <r>    -3.8657     3.9543    28.8030 </r>
       <r>    -3.8047    10.4448    29.2230 </r>
       <r>    -3.7437     9.6049    29.9338 </r>
       <r>    -3.6827    13.6749    30.7055 </r>
       <r>    -3.6217    10.1606    31.5094 </r>
       <r>    -3.5607     6.6406    32.0759 </r>
       <r>    -3.4997    10.0955    32.6009 </r>
       <r>    -3.4387    11.4188    33.2842 </r>
       <r>    -3.3777    16.0016    34.2779 </r>
       <r>    -3.3167    14.2349    35.2435 </r>
       <r>    -3.2557     7.2257    35.9026 </r>
       <r>    -3.1947     6.5994    36.3097 </r>
       <r>    -3.1337     8.4082    36.7606 </r>
       <r>    -3.0727     7.2718    37.2553 </r>
       <r>    -3.0117     7.2147    37.7215 </r>
       <r>    -2.9507    12.9668    38.3708 </r>
       <r>    -2.8897    10.6812    39.0792 </r>
       <r>    -2.8287    10.2273    39.7576 </r>
       <r>    -2.7677    10.3051    40.3720 </r>
       <r>    -2.7067    10.0208    41.0201 </r>
       <r>    -2.6457    10.0808    41.6905 </r>
       <r>    -2.5847    10.3755    42.3494 </r>
       <r>    -2.5237    10.9258    42.9946 </r>
       <r>    -2.4627     9.8541    43.6014 </r>
       <r>    -2.4017     9.8622    44.2223 </r>
       <r>    -2.3407     8.7625    44.8218 </r>
       <r>    -2.2797     9.0594    45.3835 </r>
       <r>    -2.2187     8.7529    45.9266 </r>
       <r>    -2.1577     7.9331    46.5320 </r>
       <r>    -2.0967     9.7868    47.1162 </r>
       <r>    -2.0357    20.7947    47.6839 </r>
       <r>    -1.9747    11.0329    48.3783 </r>
       <r>    -1.9137    10.8025    49.1508 </r>
       <r>    -1.8527    10.9953    49.8230 </r>
       <r>    -1.7917     9.3936    50.4383 </r>
       <r>    -1.7307    10.8653    51.0390 </r>
       <r>    -1.6697    12.2202    51.7502 </r>
       <r>    -1.6087    15.8887    52.5499 </r>
       <r>    -1.5477    13.3841    53.5562 </r>
       <r>    -1.4867    22.0217    54.4083 </r>
       <r>    -1.4257    11.4864    55.3188 </r>
       <r>    -1.3647    12.4392    56.1334 </r>
       <r>    -1.3037    13.7104    56.9743 </r>
       <r>    -1.2427    12.0473    57.7161 </r>
       <r>    -1.1817    13.5324    58.4963 </r>
       <r>    -1.1207    12.6629    59.5407 </r>
       <r>    -1.0597    13.7796    60.3379 </r>
       <r>    -0.9987    12.0177    61.3287 </r>
       <r>    -0.9377     8.8776    61.9387 </r>
       <r>    -0.8767     8.7744    62.7181 </r>
       <r>    -0.8157    16.3538    63.3993 </r>
       <r>    -0.7547     5.9113    63.9611 </r>
       <r>    -0.6937     3.4487    64.2533 </r>
       <r>    -0.6327     6.3781    64.5558 </r>
       <r>    -0.5717    12.4885    65.1584 </r>
       <r>    -0.5107     8.9207    66.0066 </r>
       <r>    -0.4497    10.1145    66.5615 </r>
       <r>    -0.3887    10.5841    67.1921 </r>
       <r>    -0.3277    11.8249    67.9013 </r>
       <r>    -0.2667    14.2478    68.6976 </r>
       <r>    -0.2057     5.7565    69.7356 </r>
       <r>    -0.1447    10.3436    70.2078 </r>
       <r>    -0.0837     7.8229    70.7093 </r>
       <r>    -0.0227    12.3020    71.3895 </r>
       <r>     0.0383     2.9428    71.6953 </r>
       <r>     0.0993     2.0097    71.8454 </r>
       <r>     0.1603     1.3861    71.9483 </r>
       <r>     0.2213     0.0000    72.0000 </r>
       <r>     0.2823     0.0000    72.0000 </r>
       <r>     0.3433     0.0000    72.0000 </r>
       <r>     0.4043     0.0000    72.0000 </r>
       <r>     0.4653     0.0000    72.0000 </r>
       <r>     0.5263     0.0000    72.0000 </r>
       <r>     0.5873     0.0000    72.0000 </r>
       <r>     0.6483     0.0000    72.0000 </r>
       <r>     0.7093     0.0000    72.0000 </r>
       <r>     0.7703     0.0000    72.0000 </r>
       <r>     0.8313     0.0000    72.0000 </r>
       <r>     0.8923     0.0000    72.0000 </r>
       <r>     0.9533     3.2905    72.0586 </r>
       <r>     1.0143     2.5079    72.2541 </r>
       <r>     1.0753     5.4364    72.4725 </r>
       <r>     1.1363     6.9327    72.8747 </r>
       <r>     1.1973     5.4847    73.2716 </r>
       <r>     1.2583     7.7290    73.6138 </r>
       <r>     1.3193     4.7384    73.8430 </r>
       <r>     1.3803     5.6797    74.1535 </r>
       <r>     1.4414     9.2750    74.6175 </r>
       <r>     1.5024     7.3174    75.1423 </r>
       <r>     1.5634     9.4115    75.6497 </r>
       <r>     1.6244    11.3126    76.2714 </r>
       <r>     1.6854     8.9933    77.0075 </r>
       <r>     1.7464    15.9165    77.8093 </r>
       <r>     1.8074    15.8166    78.9495 </r>
       <r>     1.8684    18.9438    80.0933 </r>
       <r>     1.9294    16.4566    81.2368 </r>
       <r>     1.9904    12.5648    82.1083 </r>
       <r>     2.0514    13.4882    83.1162 </r>
       <r>     2.1124    20.1901    84.2442 </r>
       <r>     2.1734    12.7901    85.2934 </r>
       <r>     2.2344    12.6792    86.0607 </r>
       <r>     2.2954     4.7255    86.5466 </r>
       <r>     2.3564     3.6227    86.8028 </r>
       <r>     2.4174     2.1001    86.9830 </r>
       <r>     2.4784     1.7693    87.1009 </r>
       <r>     2.5394     1.5796    87.2016 </r>
       <r>     2.6004     1.4320    87.2938 </r>
       <r>     2.6614     1.2882    87.3773 </r>
       <r>     2.7224     1.1654    87.4520 </r>
       <r>     2.7834     1.1084    87.5214 </r>
       <r>     2.8444     1.0284    87.5867 </r>
       <r>     2.9054     0.9982    87.6488 </r>
       <r>     2.9664     0.9420    87.7079 </r>
       <r>     3.0274     0.9580    87.7695 </r>
       <r>     3.0884     0.5738    87.8341 </r>
       <r>     3.1494     0.6206    87.8697 </r>
       <r>     3.2104     0.6426    87.9062 </r>
       <r>     3.2714     0.5324    87.9536 </r>
       <r>     3.3324     0.3942    87.9818 </r>
       <r>     3.3934     0.0000    88.0000 </r>
       <r>     3.4544     0.0000    88.0000 </r>
       <r>     3.5154     0.0000    88.0000 </r>
       <r>     3.5764     0.0000    88.0000 </r>
       <r>     3.6374     0.0000    88.0000 </r>
       <r>     3.6984     0.0000    88.0000 </r>
       <r>     3.7594     0.0000    88.0000 </r>
       <r>     3.8204     0.0000    88.0000 </r>
       <r>     3.8814     0.0000    88.0000 </r>
       <r>     3.9424     0.0000    88.0000 </r>
       <r>     4.0034     0.0000    88.0000 </r>
       <r>     4.0644     0.0000    88.0000 </r>
       <r>     4.1254     0.0000    88.0000 </r>
       <r>     4.1864     0.0000    88.0000 </r>
      </set>
     </set>
    </array>
   </total>
  </dos>
 </calculation>
 <structure name="finalpos" >
  <crystal>
   <varray name="basis" >
    <v>       3.50344967       0.00000000       0.00000000 </v>
    <v>       0.00000000       6.06808850       0.00000000 </v>
    <v>       0.00000000       0.00000000      35.00000000 </v>
   </varray>
   <i name="volume">    744.07349355 </i>
   <varray name="rec_basis" >
    <v>       0.28543296       0.00000000       0.00000000 </v>
    <v>       0.00000000       0.16479654       0.00000000 </v>
    <v>       0.00000000       0.00000000       0.02857143 </v>
   </varray>
  </crystal>
  <varray name="positions" >
   <v>       0.00000000       0.66666212       0.16114054 </v>
   <v>       0.00000000       0.66666230       0.05820024 </v>
   <v>       0.50000000       0.16666212       0.16114054 </v>
   <v>       0.50000000       0.16666230       0.05820024 </v>
   <v>       0.00000000       0.33333770       0.38027533 </v>
   <v>       0.00000000       0.33333788       0.27733503 </v>
   <v>       0.50000000       0.83333770       0.38027533 </v>
   <v>       0.50000000       0.83333788       0.27733503 </v>
   <v>       0.00000000       0.00000066       0.10961466 </v>
   <v>       0.50000000       0.50000066       0.10961466 </v>
   <v>       0.00000000       0.99999934       0.32886091 </v>
   <v>       0.50000000       0.49999934       0.32886091 </v>
   <v>       0.50000000       0.50000000       0.45000000 </v>
  </varray>
 </structure>
</modeling>
