<?xml version="1.0" encoding="ISO-8859-1"?>
<modeling>
 <generator>
  <i name="program" type="string">vasp </i>
  <i name="version" type="string">5.4.4.18Apr17-6-g9f103f2a35  </i>
  <i name="subversion" type="string">(build Nov 26 2018 16:29:41) complex            parallel </i>
  <i name="platform" type="string">LinuxIFC </i>
  <i name="date" type="string">2019 10 22 </i>
  <i name="time" type="string">14:28:29 </i>
 </generator>
 <incar>
  <i type="string" name="SYSTEM"> MoTe2</i>
  <i type="string" name="PREC">accurate</i>
  <i type="string" name="ALGO"> Normal</i>
  <i type="int" name="IBRION">    -1</i>
  <i name="EDIFF">      0.00010000</i>
  <i type="int" name="ISYM">     2</i>
  <i name="ENCUT">    400.00000000</i>
  <i name="POTIM">      0.50000000</i>
  <i type="logical" name="LREAL"> F  </i>
  <i type="int" name="ISMEAR">    -5</i>
  <i name="SIGMA">      0.05000000</i>
  <i type="int" name="NWRITE">     1</i>
  <i type="logical" name="LWAVE"> F  </i>
  <i type="logical" name="LCHARG"> T  </i>
  <i type="logical" name="LVTOT"> T  </i>
  <i type="logical" name="LASPH"> T  </i>
  <v type="int" name="KPOINT_BSE">    -1     0     0     0</v>
  <i type="logical" name="LUSE_VDW"> T  </i>
  <i name="BPARAM">     15.70000000</i>
  <i type="logical" name="LDIPOL"> T  </i>
  <i type="int" name="IDIPOL">     3</i>
  <i type="string" name="METAGGA"> SCAN</i>
  <i type="logical" name="LASPH"> T  </i>
 </incar>
 <structure name="primitive_cell" >
  <crystal>
   <varray name="basis" >
    <v>      -1.75172484      -3.03404825       0.00000000 </v>
    <v>      -1.75172484       3.03404026       0.00000000 </v>
    <v>       0.00000000       0.00000000     -35.00000000 </v>
   </varray>
   <i name="volume">    372.03674677 </i>
   <varray name="rec_basis" >
    <v>      -0.28543258      -0.16479654       0.00000000 </v>
    <v>      -0.28543333       0.16479654       0.00000000 </v>
    <v>       0.00000000       0.00000000      -0.02857143 </v>
   </varray>
  </crystal>
  <varray name="positions" >
   <v>       0.33333788      -0.33333788      -0.16114054 </v>
   <v>      -0.00000132       0.00000132      -0.10961466 </v>
   <v>       0.33333770      -0.33333770      -0.05820024 </v>
   <v>      -0.33333788       0.33333788      -0.27733503 </v>
   <v>       0.00000000      -0.00000000      -0.32886091 </v>
   <v>      -0.33333770       0.33333770      -0.38027533 </v>
  </varray>
 </structure>
 <varray name="primitive_index" >
  <v type="int" >        1 </v>
  <v type="int" >       10 </v>
  <v type="int" >        2 </v>
  <v type="int" >        6 </v>
  <v type="int" >       12 </v>
  <v type="int" >        5 </v>
 </varray>
 <kpoints>
  <generation param="Monkhorst-Pack">
   <v type="int" name="divisions">      20       10        1 </v>
   <v name="usershift">      0.00000000       0.00000000       0.00000000 </v>
   <v name="genvec1">      0.05000000       0.00000000       0.00000000 </v>
   <v name="genvec2">      0.00000000       0.10000000       0.00000000 </v>
   <v name="genvec3">      0.00000000       0.00000000       1.00000000 </v>
   <v name="shift">      0.50000000       0.50000000       0.00000000 </v>
  </generation>
  <varray name="kpointlist" >
   <v>       0.02500000       0.05000000       0.00000000 </v>
   <v>       0.07500000       0.05000000       0.00000000 </v>
   <v>       0.12500000       0.05000000       0.00000000 </v>
   <v>       0.17500000       0.05000000       0.00000000 </v>
   <v>       0.22500000       0.05000000       0.00000000 </v>
   <v>       0.27500000       0.05000000       0.00000000 </v>
   <v>       0.32500000       0.05000000       0.00000000 </v>
   <v>       0.37500000       0.05000000       0.00000000 </v>
   <v>       0.42500000       0.05000000       0.00000000 </v>
   <v>       0.47500000       0.05000000       0.00000000 </v>
   <v>       0.02500000       0.15000000       0.00000000 </v>
   <v>       0.07500000       0.15000000       0.00000000 </v>
   <v>       0.12500000       0.15000000       0.00000000 </v>
   <v>       0.17500000       0.15000000       0.00000000 </v>
   <v>       0.22500000       0.15000000       0.00000000 </v>
   <v>       0.27500000       0.15000000       0.00000000 </v>
   <v>       0.32500000       0.15000000       0.00000000 </v>
   <v>       0.37500000       0.15000000       0.00000000 </v>
   <v>       0.42500000       0.15000000       0.00000000 </v>
   <v>       0.47500000       0.15000000       0.00000000 </v>
   <v>       0.02500000       0.25000000       0.00000000 </v>
   <v>       0.07500000       0.25000000       0.00000000 </v>
   <v>       0.12500000       0.25000000       0.00000000 </v>
   <v>       0.17500000       0.25000000       0.00000000 </v>
   <v>       0.22500000       0.25000000       0.00000000 </v>
   <v>       0.27500000       0.25000000       0.00000000 </v>
   <v>       0.32500000       0.25000000       0.00000000 </v>
   <v>       0.37500000       0.25000000       0.00000000 </v>
   <v>       0.42500000       0.25000000       0.00000000 </v>
   <v>       0.47500000       0.25000000       0.00000000 </v>
   <v>       0.02500000       0.35000000       0.00000000 </v>
   <v>       0.07500000       0.35000000       0.00000000 </v>
   <v>       0.12500000       0.35000000       0.00000000 </v>
   <v>       0.17500000       0.35000000       0.00000000 </v>
   <v>       0.22500000       0.35000000       0.00000000 </v>
   <v>       0.27500000       0.35000000       0.00000000 </v>
   <v>       0.32500000       0.35000000       0.00000000 </v>
   <v>       0.37500000       0.35000000       0.00000000 </v>
   <v>       0.42500000       0.35000000       0.00000000 </v>
   <v>       0.47500000       0.35000000       0.00000000 </v>
   <v>       0.02500000       0.45000000       0.00000000 </v>
   <v>       0.07500000       0.45000000       0.00000000 </v>
   <v>       0.12500000       0.45000000       0.00000000 </v>
   <v>       0.17500000       0.45000000       0.00000000 </v>
   <v>       0.22500000       0.45000000       0.00000000 </v>
   <v>       0.27500000       0.45000000       0.00000000 </v>
   <v>       0.32500000       0.45000000       0.00000000 </v>
   <v>       0.37500000       0.45000000       0.00000000 </v>
   <v>       0.42500000       0.45000000       0.00000000 </v>
   <v>       0.47500000       0.45000000       0.00000000 </v>
  </varray>
  <varray name="weights" >
   <v>       0.02000000 </v>
   <v>       0.02000000 </v>
   <v>       0.02000000 </v>
   <v>       0.02000000 </v>
   <v>       0.02000000 </v>
   <v>       0.02000000 </v>
   <v>       0.02000000 </v>
   <v>       0.02000000 </v>
   <v>       0.02000000 </v>
   <v>       0.02000000 </v>
   <v>       0.02000000 </v>
   <v>       0.02000000 </v>
   <v>       0.02000000 </v>
   <v>       0.02000000 </v>
   <v>       0.02000000 </v>
   <v>       0.02000000 </v>
   <v>       0.02000000 </v>
   <v>       0.02000000 </v>
   <v>       0.02000000 </v>
   <v>       0.02000000 </v>
   <v>       0.02000000 </v>
   <v>       0.02000000 </v>
   <v>       0.02000000 </v>
   <v>       0.02000000 </v>
   <v>       0.02000000 </v>
   <v>       0.02000000 </v>
   <v>       0.02000000 </v>
   <v>       0.02000000 </v>
   <v>       0.02000000 </v>
   <v>       0.02000000 </v>
   <v>       0.02000000 </v>
   <v>       0.02000000 </v>
   <v>       0.02000000 </v>
   <v>       0.02000000 </v>
   <v>       0.02000000 </v>
   <v>       0.02000000 </v>
   <v>       0.02000000 </v>
   <v>       0.02000000 </v>
   <v>       0.02000000 </v>
   <v>       0.02000000 </v>
   <v>       0.02000000 </v>
   <v>       0.02000000 </v>
   <v>       0.02000000 </v>
   <v>       0.02000000 </v>
   <v>       0.02000000 </v>
   <v>       0.02000000 </v>
   <v>       0.02000000 </v>
   <v>       0.02000000 </v>
   <v>       0.02000000 </v>
   <v>       0.02000000 </v>
  </varray>
  <varray name="tetrahedronlist"  type="int" >
   <v type="int" >        2        1        1        2       12 </v>
   <v type="int" >        2        1        1       11       12 </v>
   <v type="int" >        2        1       11       11       12 </v>
   <v type="int" >        2        1        2        2       12 </v>
   <v type="int" >        2        1        2       12       12 </v>
   <v type="int" >        2        1       11       12       12 </v>
   <v type="int" >        2        2        2        3       13 </v>
   <v type="int" >        2        2        2       12       13 </v>
   <v type="int" >        2        2       12       12       13 </v>
   <v type="int" >        2        2        3        3       13 </v>
   <v type="int" >        2        2        3       13       13 </v>
   <v type="int" >        2        2       12       13       13 </v>
   <v type="int" >        2        3        3        4       14 </v>
   <v type="int" >        2        3        3       13       14 </v>
   <v type="int" >        2        3       13       13       14 </v>
   <v type="int" >        2        3        4        4       14 </v>
   <v type="int" >        2        3        4       14       14 </v>
   <v type="int" >        2        3       13       14       14 </v>
   <v type="int" >        2        4        4        5       15 </v>
   <v type="int" >        2        4        4       14       15 </v>
   <v type="int" >        2        4       14       14       15 </v>
   <v type="int" >        2        4        5        5       15 </v>
   <v type="int" >        2        4        5       15       15 </v>
   <v type="int" >        2        4       14       15       15 </v>
   <v type="int" >        2        5        5        6       16 </v>
   <v type="int" >        2        5        5       15       16 </v>
   <v type="int" >        2        5       15       15       16 </v>
   <v type="int" >        2        5        6        6       16 </v>
   <v type="int" >        2        5        6       16       16 </v>
   <v type="int" >        2        5       15       16       16 </v>
   <v type="int" >        2        6        6        7       17 </v>
   <v type="int" >        2        6        6       16       17 </v>
   <v type="int" >        2        6       16       16       17 </v>
   <v type="int" >        2        6        7        7       17 </v>
   <v type="int" >        2        6        7       17       17 </v>
   <v type="int" >        2        6       16       17       17 </v>
   <v type="int" >        2        7        7        8       18 </v>
   <v type="int" >        2        7        7       17       18 </v>
   <v type="int" >        2        7       17       17       18 </v>
   <v type="int" >        2        7        8        8       18 </v>
   <v type="int" >        2        7        8       18       18 </v>
   <v type="int" >        2        7       17       18       18 </v>
   <v type="int" >        2        8        8        9       19 </v>
   <v type="int" >        2        8        8       18       19 </v>
   <v type="int" >        2        8       18       18       19 </v>
   <v type="int" >        2        8        9        9       19 </v>
   <v type="int" >        2        8        9       19       19 </v>
   <v type="int" >        2        8       18       19       19 </v>
   <v type="int" >        2        9        9       10       20 </v>
   <v type="int" >        2        9        9       19       20 </v>
   <v type="int" >        2        9       19       19       20 </v>
   <v type="int" >        2        9       10       10       20 </v>
   <v type="int" >        2        9       10       20       20 </v>
   <v type="int" >        2        9       19       20       20 </v>
   <v type="int" >        4       10       10       10       20 </v>
   <v type="int" >        4       10       10       20       20 </v>
   <v type="int" >        4       10       20       20       20 </v>
   <v type="int" >        2        9       10       10       19 </v>
   <v type="int" >        2       10       10       19       20 </v>
   <v type="int" >        2       10       19       20       20 </v>
   <v type="int" >        2        9        9       10       19 </v>
   <v type="int" >        2        9       10       19       19 </v>
   <v type="int" >        2       10       19       19       20 </v>
   <v type="int" >        2        8        9        9       18 </v>
   <v type="int" >        2        9        9       18       19 </v>
   <v type="int" >        2        9       18       19       19 </v>
   <v type="int" >        2        8        8        9       18 </v>
   <v type="int" >        2        8        9       18       18 </v>
   <v type="int" >        2        9       18       18       19 </v>
   <v type="int" >        2        7        8        8       17 </v>
   <v type="int" >        2        8        8       17       18 </v>
   <v type="int" >        2        8       17       18       18 </v>
   <v type="int" >        2        7        7        8       17 </v>
   <v type="int" >        2        7        8       17       17 </v>
   <v type="int" >        2        8       17       17       18 </v>
   <v type="int" >        2        6        7        7       16 </v>
   <v type="int" >        2        7        7       16       17 </v>
   <v type="int" >        2        7       16       17       17 </v>
   <v type="int" >        2        6        6        7       16 </v>
   <v type="int" >        2        6        7       16       16 </v>
   <v type="int" >        2        7       16       16       17 </v>
   <v type="int" >        2        5        6        6       15 </v>
   <v type="int" >        2        6        6       15       16 </v>
   <v type="int" >        2        6       15       16       16 </v>
   <v type="int" >        2        5        5        6       15 </v>
   <v type="int" >        2        5        6       15       15 </v>
   <v type="int" >        2        6       15       15       16 </v>
   <v type="int" >        2        4        5        5       14 </v>
   <v type="int" >        2        5        5       14       15 </v>
   <v type="int" >        2        5       14       15       15 </v>
   <v type="int" >        2        4        4        5       14 </v>
   <v type="int" >        2        4        5       14       14 </v>
   <v type="int" >        2        5       14       14       15 </v>
   <v type="int" >        2        3        4        4       13 </v>
   <v type="int" >        2        4        4       13       14 </v>
   <v type="int" >        2        4       13       14       14 </v>
   <v type="int" >        2        3        3        4       13 </v>
   <v type="int" >        2        3        4       13       13 </v>
   <v type="int" >        2        4       13       13       14 </v>
   <v type="int" >        2        2        3        3       12 </v>
   <v type="int" >        2        3        3       12       13 </v>
   <v type="int" >        2        3       12       13       13 </v>
   <v type="int" >        2        2        2        3       12 </v>
   <v type="int" >        2        2        3       12       12 </v>
   <v type="int" >        2        3       12       12       13 </v>
   <v type="int" >        2        1        2        2       11 </v>
   <v type="int" >        2        2        2       11       12 </v>
   <v type="int" >        2        2       11       12       12 </v>
   <v type="int" >        2        1        1        2       11 </v>
   <v type="int" >        2        1        2       11       11 </v>
   <v type="int" >        2        2       11       11       12 </v>
   <v type="int" >        4        1        1        1       11 </v>
   <v type="int" >        4        1        1       11       11 </v>
   <v type="int" >        4        1       11       11       11 </v>
   <v type="int" >        2       11       11       12       22 </v>
   <v type="int" >        2       11       11       21       22 </v>
   <v type="int" >        2       11       21       21       22 </v>
   <v type="int" >        2       11       12       12       22 </v>
   <v type="int" >        2       11       12       22       22 </v>
   <v type="int" >        2       11       21       22       22 </v>
   <v type="int" >        2       12       12       13       23 </v>
   <v type="int" >        2       12       12       22       23 </v>
   <v type="int" >        2       12       22       22       23 </v>
   <v type="int" >        2       12       13       13       23 </v>
   <v type="int" >        2       12       13       23       23 </v>
   <v type="int" >        2       12       22       23       23 </v>
   <v type="int" >        2       13       13       14       24 </v>
   <v type="int" >        2       13       13       23       24 </v>
   <v type="int" >        2       13       23       23       24 </v>
   <v type="int" >        2       13       14       14       24 </v>
   <v type="int" >        2       13       14       24       24 </v>
   <v type="int" >        2       13       23       24       24 </v>
   <v type="int" >        2       14       14       15       25 </v>
   <v type="int" >        2       14       14       24       25 </v>
   <v type="int" >        2       14       24       24       25 </v>
   <v type="int" >        2       14       15       15       25 </v>
   <v type="int" >        2       14       15       25       25 </v>
   <v type="int" >        2       14       24       25       25 </v>
   <v type="int" >        2       15       15       16       26 </v>
   <v type="int" >        2       15       15       25       26 </v>
   <v type="int" >        2       15       25       25       26 </v>
   <v type="int" >        2       15       16       16       26 </v>
   <v type="int" >        2       15       16       26       26 </v>
   <v type="int" >        2       15       25       26       26 </v>
   <v type="int" >        2       16       16       17       27 </v>
   <v type="int" >        2       16       16       26       27 </v>
   <v type="int" >        2       16       26       26       27 </v>
   <v type="int" >        2       16       17       17       27 </v>
   <v type="int" >        2       16       17       27       27 </v>
   <v type="int" >        2       16       26       27       27 </v>
   <v type="int" >        2       17       17       18       28 </v>
   <v type="int" >        2       17       17       27       28 </v>
   <v type="int" >        2       17       27       27       28 </v>
   <v type="int" >        2       17       18       18       28 </v>
   <v type="int" >        2       17       18       28       28 </v>
   <v type="int" >        2       17       27       28       28 </v>
   <v type="int" >        2       18       18       19       29 </v>
   <v type="int" >        2       18       18       28       29 </v>
   <v type="int" >        2       18       28       28       29 </v>
   <v type="int" >        2       18       19       19       29 </v>
   <v type="int" >        2       18       19       29       29 </v>
   <v type="int" >        2       18       28       29       29 </v>
   <v type="int" >        2       19       19       20       30 </v>
   <v type="int" >        2       19       19       29       30 </v>
   <v type="int" >        2       19       29       29       30 </v>
   <v type="int" >        2       19       20       20       30 </v>
   <v type="int" >        2       19       20       30       30 </v>
   <v type="int" >        2       19       29       30       30 </v>
   <v type="int" >        4       20       20       20       30 </v>
   <v type="int" >        4       20       20       30       30 </v>
   <v type="int" >        4       20       30       30       30 </v>
   <v type="int" >        2       19       20       20       29 </v>
   <v type="int" >        2       20       20       29       30 </v>
   <v type="int" >        2       20       29       30       30 </v>
   <v type="int" >        2       19       19       20       29 </v>
   <v type="int" >        2       19       20       29       29 </v>
   <v type="int" >        2       20       29       29       30 </v>
   <v type="int" >        2       18       19       19       28 </v>
   <v type="int" >        2       19       19       28       29 </v>
   <v type="int" >        2       19       28       29       29 </v>
   <v type="int" >        2       18       18       19       28 </v>
   <v type="int" >        2       18       19       28       28 </v>
   <v type="int" >        2       19       28       28       29 </v>
   <v type="int" >        2       17       18       18       27 </v>
   <v type="int" >        2       18       18       27       28 </v>
   <v type="int" >        2       18       27       28       28 </v>
   <v type="int" >        2       17       17       18       27 </v>
   <v type="int" >        2       17       18       27       27 </v>
   <v type="int" >        2       18       27       27       28 </v>
   <v type="int" >        2       16       17       17       26 </v>
   <v type="int" >        2       17       17       26       27 </v>
   <v type="int" >        2       17       26       27       27 </v>
   <v type="int" >        2       16       16       17       26 </v>
   <v type="int" >        2       16       17       26       26 </v>
   <v type="int" >        2       17       26       26       27 </v>
   <v type="int" >        2       15       16       16       25 </v>
   <v type="int" >        2       16       16       25       26 </v>
   <v type="int" >        2       16       25       26       26 </v>
   <v type="int" >        2       15       15       16       25 </v>
   <v type="int" >        2       15       16       25       25 </v>
   <v type="int" >        2       16       25       25       26 </v>
   <v type="int" >        2       14       15       15       24 </v>
   <v type="int" >        2       15       15       24       25 </v>
   <v type="int" >        2       15       24       25       25 </v>
   <v type="int" >        2       14       14       15       24 </v>
   <v type="int" >        2       14       15       24       24 </v>
   <v type="int" >        2       15       24       24       25 </v>
   <v type="int" >        2       13       14       14       23 </v>
   <v type="int" >        2       14       14       23       24 </v>
   <v type="int" >        2       14       23       24       24 </v>
   <v type="int" >        2       13       13       14       23 </v>
   <v type="int" >        2       13       14       23       23 </v>
   <v type="int" >        2       14       23       23       24 </v>
   <v type="int" >        2       12       13       13       22 </v>
   <v type="int" >        2       13       13       22       23 </v>
   <v type="int" >        2       13       22       23       23 </v>
   <v type="int" >        2       12       12       13       22 </v>
   <v type="int" >        2       12       13       22       22 </v>
   <v type="int" >        2       13       22       22       23 </v>
   <v type="int" >        2       11       12       12       21 </v>
   <v type="int" >        2       12       12       21       22 </v>
   <v type="int" >        2       12       21       22       22 </v>
   <v type="int" >        2       11       11       12       21 </v>
   <v type="int" >        2       11       12       21       21 </v>
   <v type="int" >        2       12       21       21       22 </v>
   <v type="int" >        4       11       11       11       21 </v>
   <v type="int" >        4       11       11       21       21 </v>
   <v type="int" >        4       11       21       21       21 </v>
   <v type="int" >        2       21       21       22       32 </v>
   <v type="int" >        2       21       21       31       32 </v>
   <v type="int" >        2       21       31       31       32 </v>
   <v type="int" >        2       21       22       22       32 </v>
   <v type="int" >        2       21       22       32       32 </v>
   <v type="int" >        2       21       31       32       32 </v>
   <v type="int" >        2       22       22       23       33 </v>
   <v type="int" >        2       22       22       32       33 </v>
   <v type="int" >        2       22       32       32       33 </v>
   <v type="int" >        2       22       23       23       33 </v>
   <v type="int" >        2       22       23       33       33 </v>
   <v type="int" >        2       22       32       33       33 </v>
   <v type="int" >        2       23       23       24       34 </v>
   <v type="int" >        2       23       23       33       34 </v>
   <v type="int" >        2       23       33       33       34 </v>
   <v type="int" >        2       23       24       24       34 </v>
   <v type="int" >        2       23       24       34       34 </v>
   <v type="int" >        2       23       33       34       34 </v>
   <v type="int" >        2       24       24       25       35 </v>
   <v type="int" >        2       24       24       34       35 </v>
   <v type="int" >        2       24       34       34       35 </v>
   <v type="int" >        2       24       25       25       35 </v>
   <v type="int" >        2       24       25       35       35 </v>
   <v type="int" >        2       24       34       35       35 </v>
   <v type="int" >        2       25       25       26       36 </v>
   <v type="int" >        2       25       25       35       36 </v>
   <v type="int" >        2       25       35       35       36 </v>
   <v type="int" >        2       25       26       26       36 </v>
   <v type="int" >        2       25       26       36       36 </v>
   <v type="int" >        2       25       35       36       36 </v>
   <v type="int" >        2       26       26       27       37 </v>
   <v type="int" >        2       26       26       36       37 </v>
   <v type="int" >        2       26       36       36       37 </v>
   <v type="int" >        2       26       27       27       37 </v>
   <v type="int" >        2       26       27       37       37 </v>
   <v type="int" >        2       26       36       37       37 </v>
   <v type="int" >        2       27       27       28       38 </v>
   <v type="int" >        2       27       27       37       38 </v>
   <v type="int" >        2       27       37       37       38 </v>
   <v type="int" >        2       27       28       28       38 </v>
   <v type="int" >        2       27       28       38       38 </v>
   <v type="int" >        2       27       37       38       38 </v>
   <v type="int" >        2       28       28       29       39 </v>
   <v type="int" >        2       28       28       38       39 </v>
   <v type="int" >        2       28       38       38       39 </v>
   <v type="int" >        2       28       29       29       39 </v>
   <v type="int" >        2       28       29       39       39 </v>
   <v type="int" >        2       28       38       39       39 </v>
   <v type="int" >        2       29       29       30       40 </v>
   <v type="int" >        2       29       29       39       40 </v>
   <v type="int" >        2       29       39       39       40 </v>
   <v type="int" >        2       29       30       30       40 </v>
   <v type="int" >        2       29       30       40       40 </v>
   <v type="int" >        2       29       39       40       40 </v>
   <v type="int" >        4       30       30       30       40 </v>
   <v type="int" >        4       30       30       40       40 </v>
   <v type="int" >        4       30       40       40       40 </v>
   <v type="int" >        2       29       30       30       39 </v>
   <v type="int" >        2       30       30       39       40 </v>
   <v type="int" >        2       30       39       40       40 </v>
   <v type="int" >        2       29       29       30       39 </v>
   <v type="int" >        2       29       30       39       39 </v>
   <v type="int" >        2       30       39       39       40 </v>
   <v type="int" >        2       28       29       29       38 </v>
   <v type="int" >        2       29       29       38       39 </v>
   <v type="int" >        2       29       38       39       39 </v>
   <v type="int" >        2       28       28       29       38 </v>
   <v type="int" >        2       28       29       38       38 </v>
   <v type="int" >        2       29       38       38       39 </v>
   <v type="int" >        2       27       28       28       37 </v>
   <v type="int" >        2       28       28       37       38 </v>
   <v type="int" >        2       28       37       38       38 </v>
   <v type="int" >        2       27       27       28       37 </v>
   <v type="int" >        2       27       28       37       37 </v>
   <v type="int" >        2       28       37       37       38 </v>
   <v type="int" >        2       26       27       27       36 </v>
   <v type="int" >        2       27       27       36       37 </v>
   <v type="int" >        2       27       36       37       37 </v>
   <v type="int" >        2       26       26       27       36 </v>
   <v type="int" >        2       26       27       36       36 </v>
   <v type="int" >        2       27       36       36       37 </v>
   <v type="int" >        2       25       26       26       35 </v>
   <v type="int" >        2       26       26       35       36 </v>
   <v type="int" >        2       26       35       36       36 </v>
   <v type="int" >        2       25       25       26       35 </v>
   <v type="int" >        2       25       26       35       35 </v>
   <v type="int" >        2       26       35       35       36 </v>
   <v type="int" >        2       24       25       25       34 </v>
   <v type="int" >        2       25       25       34       35 </v>
   <v type="int" >        2       25       34       35       35 </v>
   <v type="int" >        2       24       24       25       34 </v>
   <v type="int" >        2       24       25       34       34 </v>
   <v type="int" >        2       25       34       34       35 </v>
   <v type="int" >        2       23       24       24       33 </v>
   <v type="int" >        2       24       24       33       34 </v>
   <v type="int" >        2       24       33       34       34 </v>
   <v type="int" >        2       23       23       24       33 </v>
   <v type="int" >        2       23       24       33       33 </v>
   <v type="int" >        2       24       33       33       34 </v>
   <v type="int" >        2       22       23       23       32 </v>
   <v type="int" >        2       23       23       32       33 </v>
   <v type="int" >        2       23       32       33       33 </v>
   <v type="int" >        2       22       22       23       32 </v>
   <v type="int" >        2       22       23       32       32 </v>
   <v type="int" >        2       23       32       32       33 </v>
   <v type="int" >        2       21       22       22       31 </v>
   <v type="int" >        2       22       22       31       32 </v>
   <v type="int" >        2       22       31       32       32 </v>
   <v type="int" >        2       21       21       22       31 </v>
   <v type="int" >        2       21       22       31       31 </v>
   <v type="int" >        2       22       31       31       32 </v>
   <v type="int" >        4       21       21       21       31 </v>
   <v type="int" >        4       21       21       31       31 </v>
   <v type="int" >        4       21       31       31       31 </v>
   <v type="int" >        2       31       31       32       42 </v>
   <v type="int" >        2       31       31       41       42 </v>
   <v type="int" >        2       31       41       41       42 </v>
   <v type="int" >        2       31       32       32       42 </v>
   <v type="int" >        2       31       32       42       42 </v>
   <v type="int" >        2       31       41       42       42 </v>
   <v type="int" >        2       32       32       33       43 </v>
   <v type="int" >        2       32       32       42       43 </v>
   <v type="int" >        2       32       42       42       43 </v>
   <v type="int" >        2       32       33       33       43 </v>
   <v type="int" >        2       32       33       43       43 </v>
   <v type="int" >        2       32       42       43       43 </v>
   <v type="int" >        2       33       33       34       44 </v>
   <v type="int" >        2       33       33       43       44 </v>
   <v type="int" >        2       33       43       43       44 </v>
   <v type="int" >        2       33       34       34       44 </v>
   <v type="int" >        2       33       34       44       44 </v>
   <v type="int" >        2       33       43       44       44 </v>
   <v type="int" >        2       34       34       35       45 </v>
   <v type="int" >        2       34       34       44       45 </v>
   <v type="int" >        2       34       44       44       45 </v>
   <v type="int" >        2       34       35       35       45 </v>
   <v type="int" >        2       34       35       45       45 </v>
   <v type="int" >        2       34       44       45       45 </v>
   <v type="int" >        2       35       35       36       46 </v>
   <v type="int" >        2       35       35       45       46 </v>
   <v type="int" >        2       35       45       45       46 </v>
   <v type="int" >        2       35       36       36       46 </v>
   <v type="int" >        2       35       36       46       46 </v>
   <v type="int" >        2       35       45       46       46 </v>
   <v type="int" >        2       36       36       37       47 </v>
   <v type="int" >        2       36       36       46       47 </v>
   <v type="int" >        2       36       46       46       47 </v>
   <v type="int" >        2       36       37       37       47 </v>
   <v type="int" >        2       36       37       47       47 </v>
   <v type="int" >        2       36       46       47       47 </v>
   <v type="int" >        2       37       37       38       48 </v>
   <v type="int" >        2       37       37       47       48 </v>
   <v type="int" >        2       37       47       47       48 </v>
   <v type="int" >        2       37       38       38       48 </v>
   <v type="int" >        2       37       38       48       48 </v>
   <v type="int" >        2       37       47       48       48 </v>
   <v type="int" >        2       38       38       39       49 </v>
   <v type="int" >        2       38       38       48       49 </v>
   <v type="int" >        2       38       48       48       49 </v>
   <v type="int" >        2       38       39       39       49 </v>
   <v type="int" >        2       38       39       49       49 </v>
   <v type="int" >        2       38       48       49       49 </v>
   <v type="int" >        2       39       39       40       50 </v>
   <v type="int" >        2       39       39       49       50 </v>
   <v type="int" >        2       39       49       49       50 </v>
   <v type="int" >        2       39       40       40       50 </v>
   <v type="int" >        2       39       40       50       50 </v>
   <v type="int" >        2       39       49       50       50 </v>
   <v type="int" >        4       40       40       40       50 </v>
   <v type="int" >        4       40       40       50       50 </v>
   <v type="int" >        4       40       50       50       50 </v>
   <v type="int" >        2       39       40       40       49 </v>
   <v type="int" >        2       40       40       49       50 </v>
   <v type="int" >        2       40       49       50       50 </v>
   <v type="int" >        2       39       39       40       49 </v>
   <v type="int" >        2       39       40       49       49 </v>
   <v type="int" >        2       40       49       49       50 </v>
   <v type="int" >        2       38       39       39       48 </v>
   <v type="int" >        2       39       39       48       49 </v>
   <v type="int" >        2       39       48       49       49 </v>
   <v type="int" >        2       38       38       39       48 </v>
   <v type="int" >        2       38       39       48       48 </v>
   <v type="int" >        2       39       48       48       49 </v>
   <v type="int" >        2       37       38       38       47 </v>
   <v type="int" >        2       38       38       47       48 </v>
   <v type="int" >        2       38       47       48       48 </v>
   <v type="int" >        2       37       37       38       47 </v>
   <v type="int" >        2       37       38       47       47 </v>
   <v type="int" >        2       38       47       47       48 </v>
   <v type="int" >        2       36       37       37       46 </v>
   <v type="int" >        2       37       37       46       47 </v>
   <v type="int" >        2       37       46       47       47 </v>
   <v type="int" >        2       36       36       37       46 </v>
   <v type="int" >        2       36       37       46       46 </v>
   <v type="int" >        2       37       46       46       47 </v>
   <v type="int" >        2       35       36       36       45 </v>
   <v type="int" >        2       36       36       45       46 </v>
   <v type="int" >        2       36       45       46       46 </v>
   <v type="int" >        2       35       35       36       45 </v>
   <v type="int" >        2       35       36       45       45 </v>
   <v type="int" >        2       36       45       45       46 </v>
   <v type="int" >        2       34       35       35       44 </v>
   <v type="int" >        2       35       35       44       45 </v>
   <v type="int" >        2       35       44       45       45 </v>
   <v type="int" >        2       34       34       35       44 </v>
   <v type="int" >        2       34       35       44       44 </v>
   <v type="int" >        2       35       44       44       45 </v>
   <v type="int" >        2       33       34       34       43 </v>
   <v type="int" >        2       34       34       43       44 </v>
   <v type="int" >        2       34       43       44       44 </v>
   <v type="int" >        2       33       33       34       43 </v>
   <v type="int" >        2       33       34       43       43 </v>
   <v type="int" >        2       34       43       43       44 </v>
   <v type="int" >        2       32       33       33       42 </v>
   <v type="int" >        2       33       33       42       43 </v>
   <v type="int" >        2       33       42       43       43 </v>
   <v type="int" >        2       32       32       33       42 </v>
   <v type="int" >        2       32       33       42       42 </v>
   <v type="int" >        2       33       42       42       43 </v>
   <v type="int" >        2       31       32       32       41 </v>
   <v type="int" >        2       32       32       41       42 </v>
   <v type="int" >        2       32       41       42       42 </v>
   <v type="int" >        2       31       31       32       41 </v>
   <v type="int" >        2       31       32       41       41 </v>
   <v type="int" >        2       32       41       41       42 </v>
   <v type="int" >        4       31       31       31       41 </v>
   <v type="int" >        4       31       31       41       41 </v>
   <v type="int" >        4       31       41       41       41 </v>
   <v type="int" >        4       41       41       42       42 </v>
   <v type="int" >        4       41       41       41       42 </v>
   <v type="int" >        4       41       42       42       42 </v>
   <v type="int" >        4       42       42       43       43 </v>
   <v type="int" >        4       42       42       42       43 </v>
   <v type="int" >        4       42       43       43       43 </v>
   <v type="int" >        4       43       43       44       44 </v>
   <v type="int" >        4       43       43       43       44 </v>
   <v type="int" >        4       43       44       44       44 </v>
   <v type="int" >        4       44       44       45       45 </v>
   <v type="int" >        4       44       44       44       45 </v>
   <v type="int" >        4       44       45       45       45 </v>
   <v type="int" >        4       45       45       46       46 </v>
   <v type="int" >        4       45       45       45       46 </v>
   <v type="int" >        4       45       46       46       46 </v>
   <v type="int" >        4       46       46       47       47 </v>
   <v type="int" >        4       46       46       46       47 </v>
   <v type="int" >        4       46       47       47       47 </v>
   <v type="int" >        4       47       47       48       48 </v>
   <v type="int" >        4       47       47       47       48 </v>
   <v type="int" >        4       47       48       48       48 </v>
   <v type="int" >        4       48       48       49       49 </v>
   <v type="int" >        4       48       48       48       49 </v>
   <v type="int" >        4       48       49       49       49 </v>
   <v type="int" >        4       49       49       50       50 </v>
   <v type="int" >        4       49       49       49       50 </v>
   <v type="int" >        4       49       50       50       50 </v>
   <v type="int" >        6       50       50       50       50 </v>
   <v type="int" >        6       41       41       41       41 </v>
   <v type="int" >        4        1        1        2        2 </v>
   <v type="int" >        4        1        1        1        2 </v>
   <v type="int" >        4        1        2        2        2 </v>
   <v type="int" >        4        2        2        3        3 </v>
   <v type="int" >        4        2        2        2        3 </v>
   <v type="int" >        4        2        3        3        3 </v>
   <v type="int" >        4        3        3        4        4 </v>
   <v type="int" >        4        3        3        3        4 </v>
   <v type="int" >        4        3        4        4        4 </v>
   <v type="int" >        4        4        4        5        5 </v>
   <v type="int" >        4        4        4        4        5 </v>
   <v type="int" >        4        4        5        5        5 </v>
   <v type="int" >        4        5        5        6        6 </v>
   <v type="int" >        4        5        5        5        6 </v>
   <v type="int" >        4        5        6        6        6 </v>
   <v type="int" >        4        6        6        7        7 </v>
   <v type="int" >        4        6        6        6        7 </v>
   <v type="int" >        4        6        7        7        7 </v>
   <v type="int" >        4        7        7        8        8 </v>
   <v type="int" >        4        7        7        7        8 </v>
   <v type="int" >        4        7        8        8        8 </v>
   <v type="int" >        4        8        8        9        9 </v>
   <v type="int" >        4        8        8        8        9 </v>
   <v type="int" >        4        8        9        9        9 </v>
   <v type="int" >        4        9        9       10       10 </v>
   <v type="int" >        4        9        9        9       10 </v>
   <v type="int" >        4        9       10       10       10 </v>
   <v type="int" >        6       10       10       10       10 </v>
   <v type="int" >        6        1        1        1        1 </v>
  </varray>
  <i name="volumeweight">      0.00083333 </i>
 </kpoints>
 <parameters>
  <separator name="general" >
   <i type="string" name="SYSTEM">MoTe2</i>
   <i type="logical" name="LCOMPAT"> F  </i>
  </separator>
  <separator name="electronic" >
   <i type="string" name="PREC">accura</i>
   <i name="ENMAX">    400.00000000</i>
   <i name="ENAUG">    368.79200000</i>
   <i name="EDIFF">      0.00010000</i>
   <i type="int" name="IALGO">    38</i>
   <i type="int" name="IWAVPR">    10</i>
   <i type="int" name="NBANDS">    44</i>
   <i name="NELECT">     72.00000000</i>
   <i type="int" name="TURBO">     0</i>
   <i type="int" name="IRESTART">     0</i>
   <i type="int" name="NREBOOT">     0</i>
   <i type="int" name="NMIN">     0</i>
   <i name="EREF">      0.00000000</i>
   <separator name="electronic smearing" >
    <i type="int" name="ISMEAR">    -5</i>
    <i name="SIGMA">      0.05000000</i>
    <i name="KSPACING">      0.50000000</i>
    <i type="logical" name="KGAMMA"> T  </i>
   </separator>
   <separator name="electronic projectors" >
    <i type="logical" name="LREAL"> F  </i>
    <v name="ROPT">      0.00000000      0.00000000</v>
    <i type="int" name="LMAXPAW">  -100</i>
    <i type="int" name="LMAXMIX">     2</i>
    <i type="logical" name="NLSPLINE"> F  </i>
   </separator>
   <separator name="electronic startup" >
    <i type="int" name="ISTART">     0</i>
    <i type="int" name="ICHARG">     2</i>
    <i type="int" name="INIWAV">     1</i>
   </separator>
   <separator name="electronic spin" >
    <i type="int" name="ISPIN">     1</i>
    <i type="logical" name="LNONCOLLINEAR"> F  </i>
    <v name="MAGMOM">      1.00000000      1.00000000      1.00000000      1.00000000      1.00000000      1.00000000      1.00000000      1.00000000      1.00000000      1.00000000      1.00000000      1.00000000</v>
    <i name="NUPDOWN">     -1.00000000</i>
    <i type="logical" name="LSORBIT"> F  </i>
    <v name="SAXIS">      0.00000000      0.00000000      1.00000000</v>
    <i type="logical" name="LSPIRAL"> F  </i>
    <v name="QSPIRAL">      0.00000000      0.00000000      0.00000000</v>
    <i type="logical" name="LZEROZ"> F  </i>
   </separator>
   <separator name="electronic exchange-correlation" >
    <i type="logical" name="LASPH"> T  </i>
    <i type="logical" name="LMETAGGA"> F  </i>
   </separator>
   <separator name="electronic convergence" >
    <i type="int" name="NELM">    60</i>
    <i type="int" name="NELMDL">    -5</i>
    <i type="int" name="NELMIN">     2</i>
    <i name="ENINI">    400.00000000</i>
    <separator name="electronic convergence detail" >
     <i type="logical" name="LDIAG"> T  </i>
     <i type="logical" name="LSUBROT"> F  </i>
     <i name="WEIMIN">      0.00000000</i>
     <i name="EBREAK">      0.00000057</i>
     <i name="DEPER">      0.30000000</i>
     <i type="int" name="NRMM">     4</i>
     <i name="TIME">      0.40000000</i>
    </separator>
   </separator>
   <separator name="electronic mixer" >
    <i name="AMIX">      0.40000000</i>
    <i name="BMIX">      1.00000000</i>
    <i name="AMIN">      0.10000000</i>
    <i name="AMIX_MAG">      1.60000000</i>
    <i name="BMIX_MAG">      1.00000000</i>
    <separator name="electronic mixer details" >
     <i type="int" name="IMIX">     4</i>
     <i type="logical" name="MIXFIRST"> F  </i>
     <i type="int" name="MAXMIX">   -45</i>
     <i name="WC">    100.00000000</i>
     <i type="int" name="INIMIX">     1</i>
     <i type="int" name="MIXPRE">     1</i>
     <i type="int" name="MREMOVE">     5</i>
    </separator>
   </separator>
   <separator name="electronic dipolcorrection" >
    <i type="logical" name="LDIPOL"> T  </i>
    <i type="logical" name="LMONO"> F  </i>
    <i type="int" name="IDIPOL">     3</i>
    <i name="EPSILON">      1.00000000</i>
    <v name="DIPOL">   -100.00000000   -100.00000000   -100.00000000</v>
    <i name="EFIELD">      0.00000000</i>
   </separator>
  </separator>
  <separator name="grids" >
   <i type="int" name="NGX">    24</i>
   <i type="int" name="NGY">    40</i>
   <i type="int" name="NGZ">   240</i>
   <i type="int" name="NGXF">    48</i>
   <i type="int" name="NGYF">    80</i>
   <i type="int" name="NGZF">   480</i>
   <i type="logical" name="ADDGRID"> F  </i>
  </separator>
  <separator name="ionic" >
   <i type="int" name="NSW">     0</i>
   <i type="int" name="IBRION">    -1</i>
   <i type="int" name="MDALGO">     0</i>
   <i type="int" name="ISIF">     2</i>
   <i name="PSTRESS">      0.00000000</i>
   <i name="EDIFFG">      0.00100000</i>
   <i type="int" name="NFREE">     0</i>
   <i name="POTIM">      0.50000000</i>
   <i name="SMASS">     -3.00000000</i>
   <i name="SCALEE">      1.00000000</i>
  </separator>
  <separator name="ionic md" >
   <i name="TEBEG">      0.00010000</i>
   <i name="TEEND">      0.00010000</i>
   <i type="int" name="NBLOCK">     1</i>
   <i type="int" name="KBLOCK">     1</i>
   <i type="int" name="NPACO">   256</i>
   <i name="APACO">     16.00000000</i>
  </separator>
  <separator name="symmetry" >
   <i type="int" name="ISYM">     2</i>
   <i name="SYMPREC">      0.00001000</i>
  </separator>
  <separator name="dos" >
   <i type="int" name="LORBIT">     0</i>
   <v name="RWIGS">     -1.00000000     -1.00000000</v>
   <i type="int" name="NEDOS">   301</i>
   <i name="EMIN">     10.00000000</i>
   <i name="EMAX">    -10.00000000</i>
   <i name="EFERMI">      0.00000000</i>
  </separator>
  <separator name="writing" >
   <i type="int" name="NWRITE">     1</i>
   <i type="logical" name="LWAVE"> F  </i>
   <i type="logical" name="LDOWNSAMPLE"> F  </i>
   <i type="logical" name="LCHARG"> T  </i>
   <i type="logical" name="LPARD"> F  </i>
   <i type="logical" name="LVTOT"> T  </i>
   <i type="logical" name="LVHAR"> F  </i>
   <i type="logical" name="LELF"> F  </i>
   <i type="logical" name="LOPTICS"> F  </i>
   <v name="STM">      0.00000000      0.00000000      0.00000000      0.00000000      0.00000000      0.00000000      0.00000000</v>
  </separator>
  <separator name="performance" >
   <i type="int" name="NPAR">     4</i>
   <i type="int" name="NSIM">     4</i>
   <i type="int" name="NBLK">    -1</i>
   <i type="logical" name="LPLANE"> T  </i>
   <i type="logical" name="LSCALAPACK"> T  </i>
   <i type="logical" name="LSCAAWARE"> F  </i>
   <i type="logical" name="LSCALU"> F  </i>
   <i type="logical" name="LASYNC"> F  </i>
   <i type="logical" name="LORBITALREAL"> F  </i>
  </separator>
  <separator name="miscellaneous" >
   <i type="int" name="IDIOT">     3</i>
   <i type="int" name="ISPECIAL">     0</i>
   <i type="logical" name="LMUSIC"> F  </i>
   <v name="POMASS">    127.60000000     95.94000000</v>
   <v name="DARWINR">      0.00000000      0.00000000</v>
   <v name="DARWINV">      1.00000000      1.00000000</v>
   <i type="logical" name="LCORR"> T  </i>
  </separator>
  <i type="logical" name="GGA_COMPAT"> T  </i>
  <i type="logical" name="LBERRY"> F  </i>
  <i type="int" name="ICORELEVEL">     0</i>
  <i type="logical" name="LDAU"> F  </i>
  <i type="int" name="I_CONSTRAINED_M">     0</i>
  <separator name="electronic exchange-correlation" >
   <i type="string" name="GGA">--</i>
   <i type="int" name="VOSKOWN">     0</i>
   <i type="logical" name="LHFCALC"> F  </i>
   <i type="string" name="PRECFOCK"></i>
   <i type="logical" name="LSYMGRAD"> F  </i>
   <i type="logical" name="LHFONE"> F  </i>
   <i type="logical" name="LRHFCALC"> F  </i>
   <i type="logical" name="LTHOMAS"> F  </i>
   <i type="logical" name="LMODELHF"> F  </i>
   <i name="ENCUT4O">     -1.00000000</i>
   <i type="int" name="EXXOEP">     0</i>
   <i type="int" name="FOURORBIT">     0</i>
   <i name="AEXX">      0.00000000</i>
   <i name="HFALPHA">      0.00000000</i>
   <i name="MCALPHA">      0.00000000</i>
   <i name="ALDAX">      1.00000000</i>
   <i name="AGGAX">      1.00000000</i>
   <i name="ALDAC">      1.00000000</i>
   <i name="AGGAC">      1.00000000</i>
   <i type="int" name="NKREDX">     1</i>
   <i type="int" name="NKREDY">     1</i>
   <i type="int" name="NKREDZ">     1</i>
   <i type="logical" name="SHIFTRED"> F  </i>
   <i type="logical" name="ODDONLY"> F  </i>
   <i type="logical" name="EVENONLY"> F  </i>
   <i type="int" name="LMAXFOCK">     0</i>
   <i type="int" name="NMAXFOCKAE">     0</i>
   <i type="logical" name="LFOCKAEDFT"> F  </i>
   <i name="HFSCREEN">      0.00000000</i>
   <i name="HFSCREENC">      0.00000000</i>
   <i type="int" name="NBANDSGWLOW">     0</i>
  </separator>
  <separator name="vdW DFT" >
   <i type="logical" name="LUSE_VDW"> T  </i>
   <i name="Zab_VDW">     -0.84910000</i>
   <i name="PARAM1">      0.12340000</i>
   <i name="PARAM2">      1.00000000</i>
   <i name="PARAM3">      0.00000000</i>
  </separator>
  <separator name="model GW" >
   <i type="int" name="MODEL_GW">     0</i>
   <i name="MODEL_EPS0">     37.20367468</i>
   <i name="MODEL_ALPHA">      1.00000000</i>
  </separator>
  <separator name="linear response parameters" >
   <i type="logical" name="LEPSILON"> F  </i>
   <i type="logical" name="LRPA"> F  </i>
   <i type="logical" name="LNABLA"> F  </i>
   <i type="logical" name="LVEL"> F  </i>
   <i type="int" name="KINTER">     0</i>
   <i name="CSHIFT">      0.10000000</i>
   <i name="OMEGAMAX">     -1.00000000</i>
   <i name="DEG_THRESHOLD">      0.00200000</i>
   <i name="RTIME">     -0.10000000</i>
   <i name="WPLASMAI">      0.00000000</i>
   <v name="DFIELD">      0.00000000      0.00000000      0.00000000</v>
   <v name="WPLASMA">      0.00000000      0.00000000      0.00000000      0.00000000      0.00000000      0.00000000      0.00000000      0.00000000      0.00000000</v>
  </separator>
  <separator name="orbital magnetization" >
   <i type="logical" name="NUCIND"> F  </i>
   <v name="MAGPOS">      0.00000000      0.00000000      0.00000000</v>
   <i type="logical" name="LNICSALL"> T  </i>
   <i type="logical" name="ORBITALMAG"> F  </i>
   <i type="logical" name="LMAGBLOCH"> F  </i>
   <i type="logical" name="LCHIMAG"> F  </i>
   <i type="logical" name="LGAUGE"> T  </i>
   <i type="int" name="MAGATOM">     0</i>
   <v name="MAGDIPOL">      0.00000000      0.00000000      0.00000000</v>
   <v name="AVECCONST">      0.00000000      0.00000000      0.00000000</v>
  </separator>
  <separator name="response functions" >
   <i type="logical" name="LADDER"> F  </i>
   <i type="logical" name="LRPAFORCE"> F  </i>
   <i type="logical" name="LFXC"> F  </i>
   <i type="logical" name="LHARTREE"> T  </i>
   <i type="int" name="IBSE">     0</i>
   <v type="int" name="KPOINT">    -1     0     0     0</v>
   <i type="logical" name="LTCTE"> F  </i>
   <i type="logical" name="LTETE"> F  </i>
   <i type="logical" name="LTRIPLET"> F  </i>
   <i type="logical" name="LFXCEPS"> F  </i>
   <i type="logical" name="LFXHEG"> F  </i>
   <i type="int" name="NATURALO">     2</i>
   <i type="logical" name="L2ORDER"> F  </i>
   <i type="logical" name="LMP2LT"> F  </i>
   <i type="logical" name="LUSEW"> F  </i>
   <i name="ENCUTGW">     -2.00000000</i>
   <i name="ENCUTGWSOFT">     -2.00000000</i>
   <i name="ENCUTLF">     -1.00000000</i>
   <i type="int" name="LMAXMP2">    -1</i>
   <i name="SCISSOR">      0.00000000</i>
   <i type="int" name="NOMEGA">     0</i>
   <i type="int" name="NOMEGAR">     0</i>
   <i type="int" name="NBANDSGW">    -1</i>
   <i type="int" name="NBANDSO">    -1</i>
   <i type="int" name="NBANDSV">    -1</i>
   <i type="int" name="NELM">     1</i>
   <i type="int" name="NELMHF">     1</i>
   <i type="int" name="DIM">     3</i>
   <i type="int" name="ANTIRES">     0</i>
   <i name="OMEGAMAX">    -30.00000000</i>
   <i name="OMEGAMIN">    -30.00000000</i>
   <i name="OMEGATL">   -200.00000000</i>
   <i type="int" name="OMEGAGRID">   140</i>
   <i name="CSHIFT">     -0.10000000</i>
   <i type="logical" name="SELFENERGY"> F  </i>
   <i type="logical" name="LSPECTRAL"> F  </i>
   <i type="logical" name="LSPECTRALGW"> F  </i>
   <i type="logical" name="LSINGLES"> F  </i>
   <i type="logical" name="LFERMIGW"> F  </i>
   <i type="logical" name="ODDONLYGW"> F  </i>
   <i type="logical" name="EVENONLYGW"> F  </i>
   <i type="int" name="NKREDLFX">     1</i>
   <i type="int" name="NKREDLFY">     1</i>
   <i type="int" name="NKREDLFZ">     1</i>
   <i type="int" name="MAXMEM">  2800</i>
   <i type="int" name="TELESCOPE">     0</i>
   <i type="int" name="TAUPAR">     1</i>
   <i type="int" name="OMEGAPAR">    -1</i>
   <i name="LAMBDA">      1.00000000</i>
  </separator>
  <separator name="External order field" >
   <i name="OFIELD_KAPPA">      0.00000000</i>
   <v name="OFIELD_K">      0.00000000      0.00000000      0.00000000</v>
   <i name="OFIELD_Q6_NEAR">      0.00000000</i>
   <i name="OFIELD_Q6_FAR">      0.00000000</i>
   <i name="OFIELD_A">      0.00000000</i>
  </separator>
 </parameters>
 <atominfo>
  <atoms>      12 </atoms>
  <types>       2 </types>
  <array name="atoms" >
   <dimension dim="1">ion</dimension>
   <field type="string">element</field>
   <field type="int">atomtype</field>
   <set>
    <rc><c>Te</c><c>   1</c></rc>
    <rc><c>Te</c><c>   1</c></rc>
    <rc><c>Te</c><c>   1</c></rc>
    <rc><c>Te</c><c>   1</c></rc>
    <rc><c>Te</c><c>   1</c></rc>
    <rc><c>Te</c><c>   1</c></rc>
    <rc><c>Te</c><c>   1</c></rc>
    <rc><c>Te</c><c>   1</c></rc>
    <rc><c>Mo</c><c>   2</c></rc>
    <rc><c>Mo</c><c>   2</c></rc>
    <rc><c>Mo</c><c>   2</c></rc>
    <rc><c>Mo</c><c>   2</c></rc>
   </set>
  </array>
  <array name="atomtypes" >
   <dimension dim="1">type</dimension>
   <field type="int">atomspertype</field>
   <field type="string">element</field>
   <field>mass</field>
   <field>valence</field>
   <field type="string">pseudopotential</field>
   <set>
    <rc><c>   8</c><c>Te</c><c>    127.60000000</c><c>      6.00000000</c><c>  PAW_PBE Te 08Apr2002                  </c></rc>
    <rc><c>   4</c><c>Mo</c><c>     95.94000000</c><c>      6.00000000</c><c>  PAW_PBE Mo 08Apr2002                  </c></rc>
   </set>
  </array>
 </atominfo>
 <structure name="initialpos" >
  <crystal>
   <varray name="basis" >
    <v>       3.50344967       0.00000000       0.00000000 </v>
    <v>       0.00000000       6.06808850       0.00000000 </v>
    <v>       0.00000000       0.00000000      35.00000000 </v>
   </varray>
   <i name="volume">    744.07349355 </i>
   <varray name="rec_basis" >
    <v>       0.28543296       0.00000000       0.00000000 </v>
    <v>       0.00000000       0.16479654       0.00000000 </v>
    <v>       0.00000000       0.00000000       0.02857143 </v>
   </varray>
  </crystal>
  <varray name="positions" >
   <v>       0.00000000       0.66666212       0.16114054 </v>
   <v>       0.00000000       0.66666230       0.05820024 </v>
   <v>       0.50000000       0.16666212       0.16114054 </v>
   <v>       0.50000000       0.16666230       0.05820024 </v>
   <v>       0.00000000       0.33333770       0.38027533 </v>
   <v>       0.00000000       0.33333788       0.27733503 </v>
   <v>       0.50000000       0.83333770       0.38027533 </v>
   <v>       0.50000000       0.83333788       0.27733503 </v>
   <v>       0.00000000       0.00000066       0.10961466 </v>
   <v>       0.50000000       0.50000066       0.10961466 </v>
   <v>       0.00000000       0.99999934       0.32886091 </v>
   <v>       0.50000000       0.49999934       0.32886091 </v>
  </varray>
 </structure>
 <calculation>
  <scstep>
   <time name="dav">   10.26   10.26</time>
   <time name="total">   13.02   13.04</time>
   <dipole>
    <v name="dipole">      0.00000000       0.00000000      -0.00011722 </v>
    <i name="Tr[quadrupol]">   -312.60474966 </i>
    <i name="Echarged">      0.00000000 </i>
    <i name="Edipol_quadrupol">      0.00000000 </i>
    <i name="Eion">      0.00000000 </i>
   </dipole>
   <energy>
    <i name="alphaZ">     47.63601387 </i>
    <i name="ewald">  20024.60316149 </i>
    <i name="hartreedc"> -22553.46554064 </i>
    <i name="XCdc">   -355.51338810 </i>
    <i name="pawpsdc">   2633.27012201 </i>
    <i name="pawaedc">  -2474.01667568 </i>
    <i name="eentropy">      0.00000000 </i>
    <i name="bandstr">    118.49145641 </i>
    <i name="atom">   2656.22846841 </i>
    <i name="e_fr_energy">     97.23361777 </i>
    <i name="e_wo_entrp">     97.23361777 </i>
    <i name="e_0_energy">     97.23361777 </i>
   </energy>
  </scstep>
  <scstep>
   <time name="dav">   12.78   12.82</time>
   <time name="total">   12.81   12.85</time>
   <dipole>
    <v name="dipole">      0.00000000       0.00000000      -0.00011722 </v>
    <i name="Tr[quadrupol]">   -312.60474966 </i>
    <i name="Echarged">      0.00000000 </i>
    <i name="Edipol_quadrupol">      0.00000000 </i>
    <i name="Eion">      0.00000000 </i>
   </dipole>
   <energy>
    <i name="e_fr_energy">   -377.75054079 </i>
    <i name="e_wo_entrp">   -377.75054079 </i>
    <i name="e_0_energy">   -377.75054079 </i>
   </energy>
  </scstep>
  <scstep>
   <time name="dav">   11.72   11.75</time>
   <time name="total">   11.72   11.75</time>
   <dipole>
    <v name="dipole">      0.00000000       0.00000000      -0.00011722 </v>
    <i name="Tr[quadrupol]">   -312.60474966 </i>
    <i name="Echarged">      0.00000000 </i>
    <i name="Edipol_quadrupol">      0.00000000 </i>
    <i name="Eion">      0.00000000 </i>
   </dipole>
   <energy>
    <i name="e_fr_energy">   -432.82374859 </i>
    <i name="e_wo_entrp">   -432.82374859 </i>
    <i name="e_0_energy">   -432.82374859 </i>
   </energy>
  </scstep>
  <scstep>
   <time name="dav">   14.02   14.06</time>
   <time name="total">   14.03   14.06</time>
   <dipole>
    <v name="dipole">      0.00000000       0.00000000      -0.00011722 </v>
    <i name="Tr[quadrupol]">   -312.60474966 </i>
    <i name="Echarged">      0.00000000 </i>
    <i name="Edipol_quadrupol">      0.00000000 </i>
    <i name="Eion">      0.00000000 </i>
   </dipole>
   <energy>
    <i name="e_fr_energy">   -435.96567311 </i>
    <i name="e_wo_entrp">   -435.96567311 </i>
    <i name="e_0_energy">   -435.96567311 </i>
   </energy>
  </scstep>
  <scstep>
   <time name="dav">   13.18   13.19</time>
   <time name="total">   15.06   15.07</time>
   <dipole>
    <v name="dipole">      0.00000000       0.00000000      -0.00011722 </v>
    <i name="Tr[quadrupol]">   -312.60474966 </i>
    <i name="Echarged">      0.00000000 </i>
    <i name="Edipol_quadrupol">      0.00000000 </i>
    <i name="Eion">      0.00000000 </i>
   </dipole>
   <energy>
    <i name="e_fr_energy">   -436.03655571 </i>
    <i name="e_wo_entrp">   -436.03655571 </i>
    <i name="e_0_energy">   -436.03655571 </i>
   </energy>
  </scstep>
  <scstep>
   <time name="dav">   11.44   11.44</time>
   <time name="total">   15.81   15.84</time>
   <dipole>
    <v name="dipole">      0.00000000       0.00000000      -0.00025106 </v>
    <i name="Tr[quadrupol]">   -313.20923979 </i>
    <i name="Echarged">      0.00000000 </i>
    <i name="Edipol_quadrupol">      0.00000000 </i>
    <i name="Eion">      0.00000000 </i>
   </dipole>
   <energy>
    <i name="e_fr_energy">   -439.83183011 </i>
    <i name="e_wo_entrp">   -439.83183011 </i>
    <i name="e_0_energy">   -439.83183011 </i>
   </energy>
  </scstep>
  <scstep>
   <time name="dav">   11.71   11.71</time>
   <time name="total">   16.08   16.10</time>
   <dipole>
    <v name="dipole">      0.00000000       0.00000000       0.00002349 </v>
    <i name="Tr[quadrupol]">   -314.72721538 </i>
    <i name="Echarged">      0.00000000 </i>
    <i name="Edipol_quadrupol">      0.00000000 </i>
    <i name="Eion">      0.00000000 </i>
   </dipole>
   <energy>
    <i name="e_fr_energy">   -439.55866972 </i>
    <i name="e_wo_entrp">   -439.55866972 </i>
    <i name="e_0_energy">   -439.55866972 </i>
   </energy>
  </scstep>
  <scstep>
   <time name="dav">   12.81   12.84</time>
   <time name="total">   17.17   17.21</time>
   <dipole>
    <v name="dipole">      0.00000000       0.00000000       0.00005536 </v>
    <i name="Tr[quadrupol]">   -314.77366208 </i>
    <i name="Echarged">      0.00000000 </i>
    <i name="Edipol_quadrupol">      0.00000000 </i>
    <i name="Eion">      0.00000000 </i>
   </dipole>
   <energy>
    <i name="e_fr_energy">   -439.02714692 </i>
    <i name="e_wo_entrp">   -439.02714692 </i>
    <i name="e_0_energy">   -439.02714692 </i>
   </energy>
  </scstep>
  <scstep>
   <time name="dav">   11.78   11.78</time>
   <time name="total">   16.15   16.16</time>
   <dipole>
    <v name="dipole">      0.00000000       0.00000000       0.00018318 </v>
    <i name="Tr[quadrupol]">   -314.81737416 </i>
    <i name="Echarged">      0.00000000 </i>
    <i name="Edipol_quadrupol">      0.00000000 </i>
    <i name="Eion">      0.00000000 </i>
   </dipole>
   <energy>
    <i name="e_fr_energy">   -439.00012018 </i>
    <i name="e_wo_entrp">   -439.00012018 </i>
    <i name="e_0_energy">   -439.00012018 </i>
   </energy>
  </scstep>
  <scstep>
   <time name="dav">   13.00   13.03</time>
   <time name="total">   17.37   17.41</time>
   <dipole>
    <v name="dipole">      0.00000000       0.00000000       0.00005827 </v>
    <i name="Tr[quadrupol]">   -315.02227931 </i>
    <i name="Echarged">      0.00000000 </i>
    <i name="Edipol_quadrupol">      0.00000000 </i>
    <i name="Eion">      0.00000000 </i>
   </dipole>
   <energy>
    <i name="e_fr_energy">   -438.98407597 </i>
    <i name="e_wo_entrp">   -438.98407597 </i>
    <i name="e_0_energy">   -438.98407597 </i>
   </energy>
  </scstep>
  <scstep>
   <time name="dav">   12.63   12.63</time>
   <time name="total">   17.02   17.02</time>
   <dipole>
    <v name="dipole">      0.00000000       0.00000000       0.00006041 </v>
    <i name="Tr[quadrupol]">   -315.04963924 </i>
    <i name="Echarged">      0.00000000 </i>
    <i name="Edipol_quadrupol">      0.00000000 </i>
    <i name="Eion">      0.00000000 </i>
   </dipole>
   <energy>
    <i name="e_fr_energy">   -439.01744023 </i>
    <i name="e_wo_entrp">   -439.01744023 </i>
    <i name="e_0_energy">   -439.01744023 </i>
   </energy>
  </scstep>
  <scstep>
   <time name="dav">   12.51   12.55</time>
   <time name="total">   16.85   16.89</time>
   <dipole>
    <v name="dipole">      0.00000000       0.00000000       0.00006508 </v>
    <i name="Tr[quadrupol]">   -315.08694802 </i>
    <i name="Echarged">      0.00000000 </i>
    <i name="Edipol_quadrupol">      0.00000000 </i>
    <i name="Eion">      0.00000000 </i>
   </dipole>
   <energy>
    <i name="e_fr_energy">   -439.01016559 </i>
    <i name="e_wo_entrp">   -439.01016559 </i>
    <i name="e_0_energy">   -439.01016559 </i>
   </energy>
  </scstep>
  <scstep>
   <time name="dav">   12.85   12.85</time>
   <time name="total">   17.21   17.21</time>
   <dipole>
    <v name="dipole">      0.00000000       0.00000000      -0.00856744 </v>
    <i name="Tr[quadrupol]">   -315.32898895 </i>
    <i name="Echarged">      0.00000000 </i>
    <i name="Edipol_quadrupol">      0.00000000 </i>
    <i name="Eion">      0.00000000 </i>
   </dipole>
   <energy>
    <i name="e_fr_energy">   -438.99676880 </i>
    <i name="e_wo_entrp">   -438.99676880 </i>
    <i name="e_0_energy">   -438.99676880 </i>
   </energy>
  </scstep>
  <scstep>
   <time name="dav">   11.08   11.12</time>
   <time name="total">   15.42   15.46</time>
   <dipole>
    <v name="dipole">      0.00000000       0.00000000      -0.01594554 </v>
    <i name="Tr[quadrupol]">   -315.30708176 </i>
    <i name="Echarged">      0.00000000 </i>
    <i name="Edipol_quadrupol">      0.00000000 </i>
    <i name="Eion">      0.00000000 </i>
   </dipole>
   <energy>
    <i name="e_fr_energy">   -439.01586095 </i>
    <i name="e_wo_entrp">   -439.01586095 </i>
    <i name="e_0_energy">   -439.01586095 </i>
   </energy>
  </scstep>
  <scstep>
   <time name="dav">   12.12   12.12</time>
   <time name="total">   16.47   16.47</time>
   <dipole>
    <v name="dipole">      0.00000000       0.00000000       0.00174589 </v>
    <i name="Tr[quadrupol]">   -315.46316613 </i>
    <i name="Echarged">      0.00000000 </i>
    <i name="Edipol_quadrupol">      0.00000000 </i>
    <i name="Eion">      0.00000000 </i>
   </dipole>
   <energy>
    <i name="e_fr_energy">   -439.00583656 </i>
    <i name="e_wo_entrp">   -439.00583656 </i>
    <i name="e_0_energy">   -439.00583656 </i>
   </energy>
  </scstep>
  <scstep>
   <time name="dav">   12.81   12.85</time>
   <time name="total">   17.17   17.22</time>
   <dipole>
    <v name="dipole">      0.00000000       0.00000000      -0.00899013 </v>
    <i name="Tr[quadrupol]">   -315.57367612 </i>
    <i name="Echarged">      0.00000000 </i>
    <i name="Edipol_quadrupol">      0.00000000 </i>
    <i name="Eion">      0.00000000 </i>
   </dipole>
   <energy>
    <i name="e_fr_energy">   -438.97464777 </i>
    <i name="e_wo_entrp">   -438.97464777 </i>
    <i name="e_0_energy">   -438.97464777 </i>
   </energy>
  </scstep>
  <scstep>
   <time name="dav">   12.60   12.61</time>
   <time name="total">   16.93   16.94</time>
   <dipole>
    <v name="dipole">      0.00000000       0.00000000       0.00465280 </v>
    <i name="Tr[quadrupol]">   -315.60000063 </i>
    <i name="Echarged">      0.00000000 </i>
    <i name="Edipol_quadrupol">      0.00000000 </i>
    <i name="Eion">      0.00000000 </i>
   </dipole>
   <energy>
    <i name="e_fr_energy">   -438.97103424 </i>
    <i name="e_wo_entrp">   -438.97103424 </i>
    <i name="e_0_energy">   -438.97103424 </i>
   </energy>
  </scstep>
  <scstep>
   <time name="dav">   13.24   13.24</time>
   <time name="total">   17.63   17.66</time>
   <dipole>
    <v name="dipole">      0.00000000       0.00000000       0.01148926 </v>
    <i name="Tr[quadrupol]">   -315.64594076 </i>
    <i name="Echarged">      0.00000000 </i>
    <i name="Edipol_quadrupol">      0.00000000 </i>
    <i name="Eion">      0.00000000 </i>
   </dipole>
   <energy>
    <i name="e_fr_energy">   -438.97164191 </i>
    <i name="e_wo_entrp">   -438.97164191 </i>
    <i name="e_0_energy">   -438.97164191 </i>
   </energy>
  </scstep>
  <scstep>
   <time name="dav">   11.54   11.58</time>
   <time name="total">   15.91   15.95</time>
   <dipole>
    <v name="dipole">      0.00000000       0.00000000       0.01357338 </v>
    <i name="Tr[quadrupol]">   -315.70912405 </i>
    <i name="Echarged">      0.00000000 </i>
    <i name="Edipol_quadrupol">      0.00000000 </i>
    <i name="Eion">      0.00000000 </i>
   </dipole>
   <energy>
    <i name="e_fr_energy">   -438.97232537 </i>
    <i name="e_wo_entrp">   -438.97232537 </i>
    <i name="e_0_energy">   -438.97232537 </i>
   </energy>
  </scstep>
  <scstep>
   <time name="dav">    9.17    9.17</time>
   <time name="total">   13.53   13.53</time>
   <dipole>
    <v name="dipole">      0.00000000       0.00000000       0.01286738 </v>
    <i name="Tr[quadrupol]">   -315.74655444 </i>
    <i name="Echarged">      0.00000000 </i>
    <i name="Edipol_quadrupol">      0.00000000 </i>
    <i name="Eion">      0.00000000 </i>
   </dipole>
   <energy>
    <i name="e_fr_energy">   -438.97275383 </i>
    <i name="e_wo_entrp">   -438.97275383 </i>
    <i name="e_0_energy">   -438.97275383 </i>
   </energy>
  </scstep>
  <scstep>
   <time name="dav">    9.43    9.43</time>
   <time name="total">   13.78   13.79</time>
   <dipole>
    <v name="dipole">      0.00000000       0.00000000       0.01150395 </v>
    <i name="Tr[quadrupol]">   -315.77341080 </i>
    <i name="Echarged">      0.00000000 </i>
    <i name="Edipol_quadrupol">      0.00000000 </i>
    <i name="Eion">      0.00000000 </i>
   </dipole>
   <energy>
    <i name="e_fr_energy">   -438.97302659 </i>
    <i name="e_wo_entrp">   -438.97302659 </i>
    <i name="e_0_energy">   -438.97302659 </i>
   </energy>
  </scstep>
  <scstep>
   <time name="dav">    9.41    9.44</time>
   <time name="total">   13.79   13.85</time>
   <dipole>
    <v name="dipole">      0.00000000       0.00000000       0.00881113 </v>
    <i name="Tr[quadrupol]">   -315.80131463 </i>
    <i name="Echarged">      0.00000000 </i>
    <i name="Edipol_quadrupol">      0.00000000 </i>
    <i name="Eion">      0.00000000 </i>
   </dipole>
   <energy>
    <i name="e_fr_energy">   -438.97321057 </i>
    <i name="e_wo_entrp">   -438.97321057 </i>
    <i name="e_0_energy">   -438.97321057 </i>
   </energy>
  </scstep>
  <scstep>
   <time name="dav">    8.84    8.84</time>
   <time name="total">   11.32   11.32</time>
   <dipole>
    <v name="dipole">      0.00000000       0.00000000       0.00663085 </v>
    <i name="Tr[quadrupol]">   -315.81984599 </i>
    <i name="Echarged">      0.00000000 </i>
    <i name="Edipol_quadrupol">      0.00000000 </i>
    <i name="Eion">      0.00000000 </i>
   </dipole>
   <energy>
    <i name="alphaZ">     47.46879716 </i>
    <i name="ewald">  20024.60316149 </i>
    <i name="hartreedc"> -22592.77038369 </i>
    <i name="XCdc">   -372.33541061 </i>
    <i name="pawpsdc">   5337.43351028 </i>
    <i name="pawaedc">  -5187.75531441 </i>
    <i name="eentropy">      0.00000000 </i>
    <i name="bandstr">   -351.84610004 </i>
    <i name="atom">   2656.22846841 </i>
    <i name="e_fr_energy">   -438.97327140 </i>
    <i name="e_wo_entrp">   -438.97327140 </i>
    <i name="e_0_energy">   -438.97327140 </i>
   </energy>
  </scstep>
  <structure>
   <crystal>
    <varray name="basis" >
     <v>       3.50344967       0.00000000       0.00000000 </v>
     <v>       0.00000000       6.06808850       0.00000000 </v>
     <v>       0.00000000       0.00000000      35.00000000 </v>
    </varray>
    <i name="volume">    744.07349355 </i>
    <varray name="rec_basis" >
     <v>       0.28543296       0.00000000       0.00000000 </v>
     <v>       0.00000000       0.16479654       0.00000000 </v>
     <v>       0.00000000       0.00000000       0.02857143 </v>
    </varray>
   </crystal>
   <varray name="positions" >
    <v>       0.00000000       0.66666212       0.16114054 </v>
    <v>       0.00000000       0.66666230       0.05820024 </v>
    <v>       0.50000000       0.16666212       0.16114054 </v>
    <v>       0.50000000       0.16666230       0.05820024 </v>
    <v>       0.00000000       0.33333770       0.38027533 </v>
    <v>       0.00000000       0.33333788       0.27733503 </v>
    <v>       0.50000000       0.83333770       0.38027533 </v>
    <v>       0.50000000       0.83333788       0.27733503 </v>
    <v>       0.00000000       0.00000066       0.10961466 </v>
    <v>       0.50000000       0.50000066       0.10961466 </v>
    <v>       0.00000000       0.99999934       0.32886091 </v>
    <v>       0.50000000       0.49999934       0.32886091 </v>
   </varray>
  </structure>
  <varray name="forces" >
   <v>       0.00000000      -0.00033427      -0.02337565 </v>
   <v>       0.00000000      -0.00014375       0.04667915 </v>
   <v>       0.00000000      -0.00033427      -0.02337565 </v>
   <v>       0.00000000      -0.00014375       0.04667915 </v>
   <v>      -0.00000000       0.00014375      -0.04667915 </v>
   <v>       0.00000000       0.00033427       0.02337565 </v>
   <v>      -0.00000000       0.00014375      -0.04667915 </v>
   <v>      -0.00000000       0.00033427       0.02337565 </v>
   <v>       0.00000000      -0.00037248       0.04137763 </v>
   <v>       0.00000000      -0.00037248       0.04137763 </v>
   <v>       0.00000000       0.00037248      -0.04137763 </v>
   <v>       0.00000000       0.00037248      -0.04137763 </v>
  </varray>
  <varray name="stress" >
   <v>      -2.15734404       0.00000000       0.00000000 </v>
   <v>       0.00000000      -2.16728235       0.00119948 </v>
   <v>       0.00000000       0.00119782      -4.84032240 </v>
  </varray>
  <energy>
   <i name="e_fr_energy">   -438.97327140 </i>
   <i name="e_wo_entrp">   -438.97327140 </i>
   <i name="e_0_energy">      0.00000000 </i>
  </energy>
  <time name="totalsc">  391.27  392.15</time>
  <eigenvalues>
   <array>
    <dimension dim="1">band</dimension>
    <dimension dim="2">kpoint</dimension>
    <dimension dim="3">spin</dimension>
    <field>eigene</field>
    <field>occ</field>
    <set>
     <set comment="spin 1">
      <set comment="kpoint 1">
       <r>  -13.5560    1.0000 </r>
       <r>  -13.5069    1.0000 </r>
       <r>  -12.5989    1.0000 </r>
       <r>  -12.5198    1.0000 </r>
       <r>  -11.4092    1.0000 </r>
       <r>  -11.3866    1.0000 </r>
       <r>  -11.0752    1.0000 </r>
       <r>  -11.0460    1.0000 </r>
       <r>   -6.0875    1.0000 </r>
       <r>   -6.0751    1.0000 </r>
       <r>   -5.8358    1.0000 </r>
       <r>   -5.5410    1.0000 </r>
       <r>   -5.2297    1.0000 </r>
       <r>   -5.1458    1.0000 </r>
       <r>   -3.9509    1.0000 </r>
       <r>   -3.9044    1.0000 </r>
       <r>   -2.7605    1.0000 </r>
       <r>   -2.7428    1.0000 </r>
       <r>   -2.6627    1.0000 </r>
       <r>   -2.2945    1.0000 </r>
       <r>   -2.0804    1.0000 </r>
       <r>   -2.0678    1.0000 </r>
       <r>   -2.0290    1.0000 </r>
       <r>   -2.0164    1.0000 </r>
       <r>   -1.9988    1.0000 </r>
       <r>   -1.9566    1.0000 </r>
       <r>   -1.3222    1.0000 </r>
       <r>   -1.2676    1.0000 </r>
       <r>   -1.2551    1.0000 </r>
       <r>   -1.2418    1.0000 </r>
       <r>   -1.2266    1.0000 </r>
       <r>   -1.2068    1.0000 </r>
       <r>   -1.0657    1.0000 </r>
       <r>   -0.6946    1.0000 </r>
       <r>   -0.5651    1.0000 </r>
       <r>   -0.5332    1.0000 </r>
       <r>    1.2823    0.0000 </r>
       <r>    1.2995    0.0000 </r>
       <r>    1.5718    0.0000 </r>
       <r>    1.6206    0.0000 </r>
       <r>    2.9263    0.0000 </r>
       <r>    2.9962    0.0000 </r>
       <r>    3.0336    0.0000 </r>
       <r>    3.0970    0.0000 </r>
      </set>
      <set comment="kpoint 2">
       <r>  -13.5007    1.0000 </r>
       <r>  -13.4517    1.0000 </r>
       <r>  -12.5581    1.0000 </r>
       <r>  -12.4797    1.0000 </r>
       <r>  -11.3799    1.0000 </r>
       <r>  -11.3578    1.0000 </r>
       <r>  -11.0514    1.0000 </r>
       <r>  -11.0230    1.0000 </r>
       <r>   -6.0237    1.0000 </r>
       <r>   -6.0113    1.0000 </r>
       <r>   -5.7747    1.0000 </r>
       <r>   -5.4804    1.0000 </r>
       <r>   -5.2095    1.0000 </r>
       <r>   -5.1304    1.0000 </r>
       <r>   -3.9301    1.0000 </r>
       <r>   -3.8806    1.0000 </r>
       <r>   -2.8737    1.0000 </r>
       <r>   -2.8524    1.0000 </r>
       <r>   -2.7195    1.0000 </r>
       <r>   -2.2595    1.0000 </r>
       <r>   -2.2059    1.0000 </r>
       <r>   -2.1931    1.0000 </r>
       <r>   -2.1005    1.0000 </r>
       <r>   -1.9874    1.0000 </r>
       <r>   -1.9815    1.0000 </r>
       <r>   -1.9688    1.0000 </r>
       <r>   -1.6008    1.0000 </r>
       <r>   -1.5669    1.0000 </r>
       <r>   -1.3416    1.0000 </r>
       <r>   -1.3289    1.0000 </r>
       <r>   -1.2506    1.0000 </r>
       <r>   -1.1357    1.0000 </r>
       <r>   -1.0433    1.0000 </r>
       <r>   -0.6912    1.0000 </r>
       <r>   -0.5647    1.0000 </r>
       <r>   -0.5322    1.0000 </r>
       <r>    1.2834    0.0000 </r>
       <r>    1.3225    0.0000 </r>
       <r>    1.6152    0.0000 </r>
       <r>    1.6606    0.0000 </r>
       <r>    2.7483    0.0000 </r>
       <r>    2.7860    0.0000 </r>
       <r>    2.9331    0.0000 </r>
       <r>    2.9585    0.0000 </r>
      </set>
      <set comment="kpoint 3">
       <r>  -13.3914    1.0000 </r>
       <r>  -13.3426    1.0000 </r>
       <r>  -12.4774    1.0000 </r>
       <r>  -12.4006    1.0000 </r>
       <r>  -11.3248    1.0000 </r>
       <r>  -11.3036    1.0000 </r>
       <r>  -11.0068    1.0000 </r>
       <r>  -10.9801    1.0000 </r>
       <r>   -5.8985    1.0000 </r>
       <r>   -5.8854    1.0000 </r>
       <r>   -5.6557    1.0000 </r>
       <r>   -5.3629    1.0000 </r>
       <r>   -5.1747    1.0000 </r>
       <r>   -5.1056    1.0000 </r>
       <r>   -3.8960    1.0000 </r>
       <r>   -3.8401    1.0000 </r>
       <r>   -3.0538    1.0000 </r>
       <r>   -3.0217    1.0000 </r>
       <r>   -2.8251    1.0000 </r>
       <r>   -2.4419    1.0000 </r>
       <r>   -2.4285    1.0000 </r>
       <r>   -2.3164    1.0000 </r>
       <r>   -2.2320    1.0000 </r>
       <r>   -2.1175    1.0000 </r>
       <r>   -2.0779    1.0000 </r>
       <r>   -1.9818    1.0000 </r>
       <r>   -1.8912    1.0000 </r>
       <r>   -1.8784    1.0000 </r>
       <r>   -1.5017    1.0000 </r>
       <r>   -1.4884    1.0000 </r>
       <r>   -1.2602    1.0000 </r>
[...]
       <r>    1.5755    0.0000 </r>
      </set>
      <set comment="kpoint 49">
       <r>  -11.5511    1.0000 </r>
       <r>  -11.5227    1.0000 </r>
       <r>  -11.4345    1.0000 </r>
       <r>  -11.4101    1.0000 </r>
       <r>  -11.1687    1.0000 </r>
       <r>  -11.1329    1.0000 </r>
       <r>  -11.0887    1.0000 </r>
       <r>  -11.0577    1.0000 </r>
       <r>   -5.9827    1.0000 </r>
       <r>   -5.9704    1.0000 </r>
       <r>   -5.8940    1.0000 </r>
       <r>   -5.8811    1.0000 </r>
       <r>   -5.1639    1.0000 </r>
       <r>   -5.0828    1.0000 </r>
       <r>   -5.0674    1.0000 </r>
       <r>   -4.9818    1.0000 </r>
       <r>   -3.9917    1.0000 </r>
       <r>   -3.9478    1.0000 </r>
       <r>   -3.9163    1.0000 </r>
       <r>   -3.8896    1.0000 </r>
       <r>   -2.8318    1.0000 </r>
       <r>   -2.8072    1.0000 </r>
       <r>   -2.7032    1.0000 </r>
       <r>   -2.6850    1.0000 </r>
       <r>   -2.2782    1.0000 </r>
       <r>   -2.2539    1.0000 </r>
       <r>   -1.9747    1.0000 </r>
       <r>   -1.9696    1.0000 </r>
       <r>   -1.5310    1.0000 </r>
       <r>   -1.4733    1.0000 </r>
       <r>   -1.3722    1.0000 </r>
       <r>   -1.2600    1.0000 </r>
       <r>   -0.6323    1.0000 </r>
       <r>   -0.5954    1.0000 </r>
       <r>   -0.5809    1.0000 </r>
       <r>   -0.5538    1.0000 </r>
       <r>    1.2832    0.0000 </r>
       <r>    1.3233    0.0000 </r>
       <r>    1.3236    0.0000 </r>
       <r>    1.3406    0.0000 </r>
       <r>    1.4409    0.0000 </r>
       <r>    1.5635    0.0000 </r>
       <r>    1.5645    0.0000 </r>
       <r>    1.6207    0.0000 </r>
      </set>
      <set comment="kpoint 50">
       <r>  -11.4245    1.0000 </r>
       <r>  -11.4013    1.0000 </r>
       <r>  -11.3836    1.0000 </r>
       <r>  -11.3622    1.0000 </r>
       <r>  -11.0857    1.0000 </r>
       <r>  -11.0579    1.0000 </r>
       <r>  -11.0558    1.0000 </r>
       <r>  -11.0299    1.0000 </r>
       <r>   -6.1071    1.0000 </r>
       <r>   -6.0948    1.0000 </r>
       <r>   -6.0757    1.0000 </r>
       <r>   -6.0633    1.0000 </r>
       <r>   -5.2506    1.0000 </r>
       <r>   -5.2172    1.0000 </r>
       <r>   -5.1675    1.0000 </r>
       <r>   -5.1327    1.0000 </r>
       <r>   -3.9564    1.0000 </r>
       <r>   -3.9419    1.0000 </r>
       <r>   -3.9070    1.0000 </r>
       <r>   -3.9003    1.0000 </r>
       <r>   -2.7844    1.0000 </r>
       <r>   -2.7673    1.0000 </r>
       <r>   -2.7448    1.0000 </r>
       <r>   -2.7270    1.0000 </r>
       <r>   -2.2976    1.0000 </r>
       <r>   -2.2921    1.0000 </r>
       <r>   -2.0016    1.0000 </r>
       <r>   -1.9981    1.0000 </r>
       <r>   -1.3536    1.0000 </r>
       <r>   -1.3033    1.0000 </r>
       <r>   -1.2761    1.0000 </r>
       <r>   -1.1964    1.0000 </r>
       <r>   -0.5750    1.0000 </r>
       <r>   -0.5494    1.0000 </r>
       <r>   -0.5351    1.0000 </r>
       <r>   -0.5297    1.0000 </r>
       <r>    1.2793    0.0000 </r>
       <r>    1.2845    0.0000 </r>
       <r>    1.2986    0.0000 </r>
       <r>    1.3012    0.0000 </r>
       <r>    1.5517    0.0000 </r>
       <r>    1.6100    0.0000 </r>
       <r>    1.6147    0.0000 </r>
       <r>    1.6265    0.0000 </r>
      </set>
     </set>
    </set>
   </array>
  </eigenvalues>
  <separator name="orbital magnetization" >
   <v name="MAGDIPOLOUT">      0.00000000      0.00000000      0.00000000</v>
  </separator>
  <dos>
   <i name="efermi">     -0.31409001 </i>
   <total>
    <array>
     <dimension dim="1">gridpoints</dimension>
     <dimension dim="2">spin</dimension>
     <field>energy</field>
     <field>total</field>
     <field>integrated</field>
     <set>
      <set comment="spin 1">
       <r>   -14.3886     0.0000     0.0000 </r>
       <r>   -14.3276     0.0000     0.0000 </r>
       <r>   -14.2665     0.0000     0.0000 </r>
       <r>   -14.2054     0.0000     0.0000 </r>
       <r>   -14.1444     0.0000     0.0000 </r>
       <r>   -14.0833     0.0000     0.0000 </r>
       <r>   -14.0223     0.0000     0.0000 </r>
       <r>   -13.9612     0.0000     0.0000 </r>
       <r>   -13.9001     0.0000     0.0000 </r>
       <r>   -13.8391     0.0000     0.0000 </r>
       <r>   -13.7780     0.0000     0.0000 </r>
       <r>   -13.7170     0.0000     0.0000 </r>
       <r>   -13.6559     0.0000     0.0000 </r>
       <r>   -13.5948     0.0000     0.0000 </r>
       <r>   -13.5338     0.8522     0.0265 </r>
       <r>   -13.4727     1.9328     0.1260 </r>
       <r>   -13.4117     1.9696     0.2478 </r>
       <r>   -13.3506     2.0801     0.3704 </r>
       <r>   -13.2895     2.0553     0.4950 </r>
       <r>   -13.2285     2.0384     0.6190 </r>
       <r>   -13.1674     2.0689     0.7450 </r>
       <r>   -13.1063     2.1035     0.8726 </r>
       <r>   -13.0453     2.1221     1.0018 </r>
       <r>   -12.9842     2.1415     1.1318 </r>
       <r>   -12.9232     2.1618     1.2628 </r>
       <r>   -12.8621     2.2160     1.3964 </r>
       <r>   -12.8010     2.5680     1.5684 </r>
       <r>   -12.7400     2.1806     1.7152 </r>
       <r>   -12.6789     1.9844     1.8421 </r>
       <r>   -12.6179     1.8390     1.9577 </r>
       <r>   -12.5568     3.1218     2.1297 </r>
       <r>   -12.4957     5.0188     2.3876 </r>
       <r>   -12.4347     5.3513     2.7331 </r>
       <r>   -12.3736     5.5769     3.0670 </r>
       <r>   -12.3126     5.6300     3.4067 </r>
       <r>   -12.2515     5.3185     3.7470 </r>
       <r>   -12.1904     5.0832     4.0625 </r>
       <r>   -12.1294     5.6592     4.3849 </r>
       <r>   -12.0683     6.4075     4.7623 </r>
       <r>   -12.0073     6.5006     5.1551 </r>
       <r>   -11.9462     5.9065     5.5305 </r>
       <r>   -11.8851     5.7553     5.8862 </r>
       <r>   -11.8241     6.6299     6.2707 </r>
       <r>   -11.7630     7.4337     6.6989 </r>
       <r>   -11.7019     7.4929     7.1443 </r>
       <r>   -11.6409     7.8100     7.6101 </r>
       <r>   -11.5798     8.9144     8.1208 </r>
       <r>   -11.5188     9.4324     8.6970 </r>
       <r>   -11.4577     9.6859     9.2796 </r>
       <r>   -11.3966    10.4433     9.9200 </r>
       <r>   -11.3356    13.1101    10.7929 </r>
       <r>   -11.2745     7.8223    11.5035 </r>
       <r>   -11.2135     9.6897    12.0246 </r>
       <r>   -11.1524    14.3296    12.7767 </r>
       <r>   -11.0913    11.6783    13.5840 </r>
       <r>   -11.0303     9.9862    14.2967 </r>
       <r>   -10.9692     7.6193    14.9351 </r>
       <r>   -10.9082     6.2099    15.3559 </r>
       <r>   -10.8471     5.5826    15.7176 </r>
       <r>   -10.7860     0.0000    16.0000 </r>
       <r>   -10.7250     0.0000    16.0000 </r>
       <r>   -10.6639     0.0000    16.0000 </r>
       <r>   -10.6029     0.0000    16.0000 </r>
       <r>   -10.5418     0.0000    16.0000 </r>
       <r>   -10.4807     0.0000    16.0000 </r>
       <r>   -10.4197     0.0000    16.0000 </r>
       <r>   -10.3586     0.0000    16.0000 </r>
       <r>   -10.2975     0.0000    16.0000 </r>
       <r>   -10.2365     0.0000    16.0000 </r>
       <r>   -10.1754     0.0000    16.0000 </r>
       <r>   -10.1144     0.0000    16.0000 </r>
       <r>   -10.0533     0.0000    16.0000 </r>
       <r>    -9.9922     0.0000    16.0000 </r>
       <r>    -9.9312     0.0000    16.0000 </r>
       <r>    -9.8701     0.0000    16.0000 </r>
       <r>    -9.8091     0.0000    16.0000 </r>
       <r>    -9.7480     0.0000    16.0000 </r>
       <r>    -9.6869     0.0000    16.0000 </r>
       <r>    -9.6259     0.0000    16.0000 </r>
       <r>    -9.5648     0.0000    16.0000 </r>
       <r>    -9.5038     0.0000    16.0000 </r>
       <r>    -9.4427     0.0000    16.0000 </r>
       <r>    -9.3816     0.0000    16.0000 </r>
       <r>    -9.3206     0.0000    16.0000 </r>
       <r>    -9.2595     0.0000    16.0000 </r>
       <r>    -9.1985     0.0000    16.0000 </r>
       <r>    -9.1374     0.0000    16.0000 </r>
       <r>    -9.0763     0.0000    16.0000 </r>
       <r>    -9.0153     0.0000    16.0000 </r>
       <r>    -8.9542     0.0000    16.0000 </r>
       <r>    -8.8931     0.0000    16.0000 </r>
       <r>    -8.8321     0.0000    16.0000 </r>
       <r>    -8.7710     0.0000    16.0000 </r>
       <r>    -8.7100     0.0000    16.0000 </r>
       <r>    -8.6489     0.0000    16.0000 </r>
       <r>    -8.5878     0.0000    16.0000 </r>
       <r>    -8.5268     0.0000    16.0000 </r>
       <r>    -8.4657     0.0000    16.0000 </r>
       <r>    -8.4047     0.0000    16.0000 </r>
       <r>    -8.3436     0.0000    16.0000 </r>
       <r>    -8.2825     0.0000    16.0000 </r>
       <r>    -8.2215     0.0000    16.0000 </r>
       <r>    -8.1604     0.0000    16.0000 </r>
       <r>    -8.0994     0.0000    16.0000 </r>
       <r>    -8.0383     0.0000    16.0000 </r>
       <r>    -7.9772     0.0000    16.0000 </r>
       <r>    -7.9162     0.0000    16.0000 </r>
       <r>    -7.8551     0.0000    16.0000 </r>
       <r>    -7.7941     0.0000    16.0000 </r>
       <r>    -7.7330     0.0000    16.0000 </r>
       <r>    -7.6719     0.0000    16.0000 </r>
       <r>    -7.6109     0.0000    16.0000 </r>
       <r>    -7.5498     0.0000    16.0000 </r>
       <r>    -7.4887     0.0000    16.0000 </r>
       <r>    -7.4277     0.0000    16.0000 </r>
       <r>    -7.3666     0.0000    16.0000 </r>
       <r>    -7.3056     0.0000    16.0000 </r>
       <r>    -7.2445     0.0000    16.0000 </r>
       <r>    -7.1834     0.0000    16.0000 </r>
       <r>    -7.1224     0.0000    16.0000 </r>
       <r>    -7.0613     0.0000    16.0000 </r>
       <r>    -7.0003     0.0000    16.0000 </r>
       <r>    -6.9392     0.0000    16.0000 </r>
       <r>    -6.8781     0.0000    16.0000 </r>
       <r>    -6.8171     0.0000    16.0000 </r>
       <r>    -6.7560     0.0000    16.0000 </r>
       <r>    -6.6950     0.0000    16.0000 </r>
       <r>    -6.6339     0.0000    16.0000 </r>
       <r>    -6.5728     0.0000    16.0000 </r>
       <r>    -6.5118     0.0000    16.0000 </r>
       <r>    -6.4507     0.0000    16.0000 </r>
       <r>    -6.3897     0.0000    16.0000 </r>
       <r>    -6.3286     0.0000    16.0000 </r>
       <r>    -6.2675     0.0000    16.0000 </r>
       <r>    -6.2065     0.0000    16.0000 </r>
       <r>    -6.1454     0.0000    16.0000 </r>
       <r>    -6.0843     1.2752    16.0448 </r>
       <r>    -6.0233     2.9120    16.2217 </r>
       <r>    -5.9622     3.1431    16.4100 </r>
       <r>    -5.9012     3.2123    16.6003 </r>
       <r>    -5.8401     3.3961    16.7985 </r>
       <r>    -5.7790     4.5317    17.0666 </r>
       <r>    -5.7180     4.3998    17.3400 </r>
       <r>    -5.6569     4.5048    17.6096 </r>
       <r>    -5.5959     4.6874    17.8882 </r>
       <r>    -5.5348     5.6975    18.1976 </r>
       <r>    -5.4737     6.4752    18.5751 </r>
       <r>    -5.4127     6.9669    18.9834 </r>
       <r>    -5.3516     7.8632    19.4356 </r>
       <r>    -5.2906     9.9601    19.9997 </r>
       <r>    -5.2295    10.1590    20.5734 </r>
       <r>    -5.1684    11.3374    21.2627 </r>
       <r>    -5.1074    21.1578    22.2284 </r>
       <r>    -5.0463    14.2875    23.3274 </r>
       <r>    -4.9852    13.3823    24.1600 </r>
       <r>    -4.9242    13.2569    24.9876 </r>
       <r>    -4.8631    10.6121    25.7164 </r>
       <r>    -4.8021     7.0184    26.2733 </r>
       <r>    -4.7410     7.6130    26.7286 </r>
       <r>    -4.6799     6.7121    27.1928 </r>
       <r>    -4.6189     3.2466    27.4880 </r>
       <r>    -4.5578     2.8081    27.6909 </r>
       <r>    -4.4968     2.7233    27.8594 </r>
       <r>    -4.4357     2.6766    28.0240 </r>
       <r>    -4.3746     2.6693    28.1868 </r>
       <r>    -4.3136     3.0013    28.3565 </r>
       <r>    -4.2525     3.8515    28.5710 </r>
       <r>    -4.1915     4.0708    28.8270 </r>
       <r>    -4.1304     3.8391    29.0529 </r>
       <r>    -4.0693     8.8309    29.4813 </r>
       <r>    -4.0083    12.5244    30.0663 </r>
       <r>    -3.9472    21.3224    31.1958 </r>
       <r>    -3.8862    25.4061    32.7234 </r>
       <r>    -3.8251    17.1870    34.0384 </r>
       <r>    -3.7640     9.6665    34.9373 </r>
       <r>    -3.7030     7.0640    35.4542 </r>
       <r>    -3.6419     4.0886    35.7952 </r>
       <r>    -3.5808     3.9207    36.0896 </r>
       <r>    -3.5198     6.8451    36.3882 </r>
       <r>    -3.4587    11.9167    37.0151 </r>
       <r>    -3.3977    10.6129    37.7299 </r>
       <r>    -3.3366    10.2637    38.4352 </r>
       <r>    -3.2755    10.3845    39.1066 </r>
       <r>    -3.2145    10.6674    39.7822 </r>
       <r>    -3.1534    10.1481    40.4492 </r>
       <r>    -3.0924    10.8940    41.1149 </r>
       <r>    -3.0313     9.7860    41.7527 </r>
       <r>    -2.9702     9.4084    42.3360 </r>
       <r>    -2.9092     9.5124    42.9206 </r>
       <r>    -2.8481    10.5291    43.5556 </r>
       <r>    -2.7871    11.2394    44.2212 </r>
       <r>    -2.7260    12.1713    45.0100 </r>
       <r>    -2.6649    12.4920    45.7708 </r>
       <r>    -2.6039     6.9365    46.2754 </r>
       <r>    -2.5428     5.5547    46.6545 </r>
       <r>    -2.4818     5.5543    47.0000 </r>
       <r>    -2.4207     7.5734    47.3819 </r>
       <r>    -2.3596     7.2190    47.8130 </r>
       <r>    -2.2986     7.9512    48.2826 </r>
       <r>    -2.2375    20.8835    49.1630 </r>
       <r>    -2.1764    15.2664    50.0097 </r>
       <r>    -2.1154    13.7037    50.8155 </r>
       <r>    -2.0543    21.4442    51.6693 </r>
       <r>    -1.9933    21.0946    52.5383 </r>
       <r>    -1.9322    13.3678    53.6448 </r>
       <r>    -1.8711    11.8979    54.4021 </r>
       <r>    -1.8101    13.5810    55.2539 </r>
       <r>    -1.7490    12.5583    56.1147 </r>
       <r>    -1.6880    16.0441    57.0334 </r>
       <r>    -1.6269    15.0173    58.0727 </r>
       <r>    -1.5658    12.4237    58.9229 </r>
       <r>    -1.5048    13.0658    59.7067 </r>
       <r>    -1.4437    10.7615    60.5548 </r>
       <r>    -1.3827    10.9003    61.2951 </r>
       <r>    -1.3216    50.8316    61.9009 </r>
       <r>    -1.2605    12.1632    62.6572 </r>
       <r>    -1.1995     4.0999    63.1325 </r>
       <r>    -1.1384     7.7524    63.5178 </r>
       <r>    -1.0774    20.2697    64.2366 </r>
       <r>    -1.0163     8.1084    65.4291 </r>
       <r>    -0.9552     6.9922    65.8275 </r>
       <r>    -0.8942     7.8354    66.3712 </r>
       <r>    -0.8331     8.9449    66.8758 </r>
       <r>    -0.7720    11.0026    67.4908 </r>
       <r>    -0.7110    13.6399    68.2438 </r>
       <r>    -0.6499    11.6358    69.1257 </r>
       <r>    -0.5889    16.5211    69.8858 </r>
       <r>    -0.5278    17.4448    70.9453 </r>
       <r>    -0.4667     5.5897    71.4706 </r>
       <r>    -0.4057     3.7015    71.7496 </r>
       <r>    -0.3446     2.7012    71.9432 </r>
       <r>    -0.2836     0.0000    72.0000 </r>
       <r>    -0.2225     0.0000    72.0000 </r>
       <r>    -0.1614     0.0000    72.0000 </r>
       <r>    -0.1004     0.0000    72.0000 </r>
       <r>    -0.0393     0.0000    72.0000 </r>
       <r>     0.0217     0.0000    72.0000 </r>
       <r>     0.0828     0.0000    72.0000 </r>
       <r>     0.1439     0.0000    72.0000 </r>
       <r>     0.2049     0.0000    72.0000 </r>
       <r>     0.2660     0.0000    72.0000 </r>
       <r>     0.3270     0.0000    72.0000 </r>
       <r>     0.3881     0.0000    72.0000 </r>
       <r>     0.4492     0.0000    72.0000 </r>
       <r>     0.5102     0.0000    72.0000 </r>
       <r>     0.5713     0.0000    72.0000 </r>
       <r>     0.6324     0.0000    72.0000 </r>
       <r>     0.6934     0.0000    72.0000 </r>
       <r>     0.7545     0.0000    72.0000 </r>
       <r>     0.8155     0.0000    72.0000 </r>
       <r>     0.8766     0.0000    72.0000 </r>
       <r>     0.9377     3.7455    72.1464 </r>
       <r>     0.9987     5.2550    72.4195 </r>
       <r>     1.0598     9.2247    72.9096 </r>
       <r>     1.1208    18.0887    73.6657 </r>
       <r>     1.1819    13.6222    74.5827 </r>
       <r>     1.2430    15.2542    75.4636 </r>
       <r>     1.3040    22.5270    76.7353 </r>
       <r>     1.3651     9.6140    78.1288 </r>
       <r>     1.4261     2.6942    78.4733 </r>
       <r>     1.4872     6.4511    78.8149 </r>
       <r>     1.5483    17.0585    79.5019 </r>
       <r>     1.6093    26.0386    81.0597 </r>
       <r>     1.6704    18.1480    82.4426 </r>
       <r>     1.7315    14.7633    83.5284 </r>
       <r>     1.7925    13.2267    84.3879 </r>
       <r>     1.8536    11.8032    85.1770 </r>
       <r>     1.9146     8.9996    85.7937 </r>
       <r>     1.9757     4.3415    86.2171 </r>
       <r>     2.0368     3.3563    86.4581 </r>
       <r>     2.0978     2.7736    86.6459 </r>
       <r>     2.1589     2.1743    86.7954 </r>
       <r>     2.2199     1.9813    86.9225 </r>
       <r>     2.2810     1.7838    87.0371 </r>
       <r>     2.3421     1.6022    87.1401 </r>
       <r>     2.4031     1.4586    87.2338 </r>
       <r>     2.4642     1.3521    87.3200 </r>
       <r>     2.5252     1.2574    87.3995 </r>
       <r>     2.5863     1.1877    87.4741 </r>
       <r>     2.6474     1.1426    87.5452 </r>
       <r>     2.7084     1.1387    87.6148 </r>
       <r>     2.7695     1.1491    87.6850 </r>
       <r>     2.8305     1.1362    87.7552 </r>
       <r>     2.8916     1.0494    87.8226 </r>
       <r>     2.9527     0.8853    87.8909 </r>
       <r>     3.0137     0.6309    87.9516 </r>
       <r>     3.0748     0.2472    87.9848 </r>
       <r>     3.1359     0.0000    88.0000 </r>
       <r>     3.1969     0.0000    88.0000 </r>
       <r>     3.2580     0.0000    88.0000 </r>
       <r>     3.3190     0.0000    88.0000 </r>
       <r>     3.3801     0.0000    88.0000 </r>
       <r>     3.4412     0.0000    88.0000 </r>
       <r>     3.5022     0.0000    88.0000 </r>
       <r>     3.5633     0.0000    88.0000 </r>
       <r>     3.6243     0.0000    88.0000 </r>
       <r>     3.6854     0.0000    88.0000 </r>
       <r>     3.7465     0.0000    88.0000 </r>
       <r>     3.8075     0.0000    88.0000 </r>
       <r>     3.8686     0.0000    88.0000 </r>
       <r>     3.9296     0.0000    88.0000 </r>
      </set>
     </set>
    </array>
   </total>
  </dos>
 </calculation>
 <structure name="finalpos" >
  <crystal>
   <varray name="basis" >
    <v>       3.50344967       0.00000000       0.00000000 </v>
    <v>       0.00000000       6.06808850       0.00000000 </v>
    <v>       0.00000000       0.00000000      35.00000000 </v>
   </varray>
   <i name="volume">    744.07349355 </i>
   <varray name="rec_basis" >
    <v>       0.28543296       0.00000000       0.00000000 </v>
    <v>       0.00000000       0.16479654       0.00000000 </v>
    <v>       0.00000000       0.00000000       0.02857143 </v>
   </varray>
  </crystal>
  <varray name="positions" >
   <v>       0.00000000       0.66666212       0.16114054 </v>
   <v>       0.00000000       0.66666230       0.05820024 </v>
   <v>       0.50000000       0.16666212       0.16114054 </v>
   <v>       0.50000000       0.16666230       0.05820024 </v>
   <v>       0.00000000       0.33333770       0.38027533 </v>
   <v>       0.00000000       0.33333788       0.27733503 </v>
   <v>       0.50000000       0.83333770       0.38027533 </v>
   <v>       0.50000000       0.83333788       0.27733503 </v>
   <v>       0.00000000       0.00000066       0.10961466 </v>
   <v>       0.50000000       0.50000066       0.10961466 </v>
   <v>       0.00000000       0.99999934       0.32886091 </v>
   <v>       0.50000000       0.49999934       0.32886091 </v>
  </varray>
 </structure>
</modeling>
