<?xml version="1.0" encoding="ISO-8859-1"?>
<modeling>
 <generator>
  <i name="program" type="string">vasp </i>
  <i name="version" type="string">5.4.4.18Apr17-6-g9f103f2a35  </i>
  <i name="subversion" type="string">(build Nov 26 2018 16:29:41) complex            parallel </i>
  <i name="platform" type="string">LinuxIFC </i>
  <i name="date" type="string">2019 10 22 </i>
  <i name="time" type="string">14:15:25 </i>
 </generator>
 <incar>
  <i type="string" name="SYSTEM"> MoTe2</i>
  <i type="string" name="PREC">accurate</i>
  <i type="string" name="ALGO"> Normal</i>
  <i type="int" name="IBRION">     2</i>
  <i name="EDIFF">      0.00010000</i>
  <i type="int" name="NSW">  1000</i>
  <i type="int" name="ISIF">     2</i>
  <i type="int" name="ISYM">     2</i>
  <i name="ENCUT">    400.00000000</i>
  <i name="POTIM">      0.50000000</i>
  <i type="logical" name="LREAL"> F  </i>
  <i type="int" name="ISMEAR">     0</i>
  <i name="SIGMA">      0.05000000</i>
  <i type="int" name="NWRITE">     1</i>
  <i type="logical" name="LWAVE"> F  </i>
  <i type="logical" name="LCHARG"> T  </i>
  <i type="logical" name="LVTOT"> T  </i>
  <i type="logical" name="LASPH"> T  </i>
  <v type="int" name="KPOINT_BSE">    -1     0     0     0</v>
  <i type="logical" name="LUSE_VDW"> T  </i>
  <i name="BPARAM">     15.70000000</i>
  <i type="logical" name="LDIPOL"> T  </i>
  <i type="int" name="IDIPOL">     3</i>
  <i type="string" name="METAGGA"> SCAN</i>
  <i type="logical" name="LASPH"> T  </i>
 </incar>
 <structure name="primitive_cell" >
  <crystal>
   <varray name="basis" >
    <v>      -1.75172484      -3.03404425       0.00000000 </v>
    <v>      -1.75172484       3.03404425       0.00000000 </v>
    <v>       0.00000000       0.00000000     -35.00000000 </v>
   </varray>
   <i name="volume">    372.03674677 </i>
   <varray name="rec_basis" >
    <v>      -0.28543296      -0.16479654       0.00000000 </v>
    <v>      -0.28543296       0.16479654       0.00000000 </v>
    <v>       0.00000000       0.00000000      -0.02857143 </v>
   </varray>
  </crystal>
  <varray name="positions" >
   <v>       0.33333333      -0.33333333      -0.16132393 </v>
   <v>       0.00000000       0.00000000      -0.10961889 </v>
   <v>       0.33333333      -0.33333333      -0.05791385 </v>
   <v>      -0.33333333       0.33333333      -0.27715164 </v>
   <v>       0.00000000       0.00000000      -0.32885668 </v>
   <v>      -0.33333333       0.33333333      -0.38056172 </v>
  </varray>
 </structure>
 <varray name="primitive_index" >
  <v type="int" >        1 </v>
  <v type="int" >        9 </v>
  <v type="int" >        2 </v>
  <v type="int" >        6 </v>
  <v type="int" >       11 </v>
  <v type="int" >        5 </v>
 </varray>
 <kpoints>
  <generation param="Monkhorst-Pack">
   <v type="int" name="divisions">      20       10        1 </v>
   <v name="usershift">      0.00000000       0.00000000       0.00000000 </v>
   <v name="genvec1">      0.05000000       0.00000000       0.00000000 </v>
   <v name="genvec2">      0.00000000       0.10000000       0.00000000 </v>
   <v name="genvec3">      0.00000000       0.00000000       1.00000000 </v>
   <v name="shift">      0.50000000       0.50000000       0.00000000 </v>
  </generation>
  <varray name="kpointlist" >
   <v>       0.02500000       0.05000000       0.00000000 </v>
   <v>       0.07500000       0.05000000       0.00000000 </v>
   <v>       0.12500000       0.05000000       0.00000000 </v>
   <v>       0.17500000       0.05000000       0.00000000 </v>
   <v>       0.22500000       0.05000000       0.00000000 </v>
   <v>       0.27500000       0.05000000       0.00000000 </v>
   <v>       0.32500000       0.05000000       0.00000000 </v>
   <v>       0.37500000       0.05000000       0.00000000 </v>
   <v>       0.42500000       0.05000000       0.00000000 </v>
   <v>       0.47500000       0.05000000       0.00000000 </v>
   <v>       0.02500000       0.15000000       0.00000000 </v>
   <v>       0.07500000       0.15000000       0.00000000 </v>
   <v>       0.12500000       0.15000000       0.00000000 </v>
   <v>       0.17500000       0.15000000       0.00000000 </v>
   <v>       0.22500000       0.15000000       0.00000000 </v>
   <v>       0.27500000       0.15000000       0.00000000 </v>
   <v>       0.32500000       0.15000000       0.00000000 </v>
   <v>       0.37500000       0.15000000       0.00000000 </v>
   <v>       0.42500000       0.15000000       0.00000000 </v>
   <v>       0.47500000       0.15000000       0.00000000 </v>
   <v>       0.02500000       0.25000000       0.00000000 </v>
   <v>       0.07500000       0.25000000       0.00000000 </v>
   <v>       0.12500000       0.25000000       0.00000000 </v>
   <v>       0.17500000       0.25000000       0.00000000 </v>
   <v>       0.22500000       0.25000000       0.00000000 </v>
   <v>       0.27500000       0.25000000       0.00000000 </v>
   <v>       0.32500000       0.25000000       0.00000000 </v>
   <v>       0.37500000       0.25000000       0.00000000 </v>
   <v>       0.42500000       0.25000000       0.00000000 </v>
   <v>       0.47500000       0.25000000       0.00000000 </v>
   <v>       0.02500000       0.35000000       0.00000000 </v>
   <v>       0.07500000       0.35000000       0.00000000 </v>
   <v>       0.12500000       0.35000000       0.00000000 </v>
   <v>       0.17500000       0.35000000       0.00000000 </v>
   <v>       0.22500000       0.35000000       0.00000000 </v>
   <v>       0.27500000       0.35000000       0.00000000 </v>
   <v>       0.32500000       0.35000000       0.00000000 </v>
   <v>       0.37500000       0.35000000       0.00000000 </v>
   <v>       0.42500000       0.35000000       0.00000000 </v>
   <v>       0.47500000       0.35000000       0.00000000 </v>
   <v>       0.02500000       0.45000000       0.00000000 </v>
   <v>       0.07500000       0.45000000       0.00000000 </v>
   <v>       0.12500000       0.45000000       0.00000000 </v>
   <v>       0.17500000       0.45000000       0.00000000 </v>
   <v>       0.22500000       0.45000000       0.00000000 </v>
   <v>       0.27500000       0.45000000       0.00000000 </v>
   <v>       0.32500000       0.45000000       0.00000000 </v>
   <v>       0.37500000       0.45000000       0.00000000 </v>
   <v>       0.42500000       0.45000000       0.00000000 </v>
   <v>       0.47500000       0.45000000       0.00000000 </v>
  </varray>
  <varray name="weights" >
   <v>       0.02000000 </v>
   <v>       0.02000000 </v>
   <v>       0.02000000 </v>
   <v>       0.02000000 </v>
   <v>       0.02000000 </v>
   <v>       0.02000000 </v>
   <v>       0.02000000 </v>
   <v>       0.02000000 </v>
   <v>       0.02000000 </v>
   <v>       0.02000000 </v>
   <v>       0.02000000 </v>
   <v>       0.02000000 </v>
   <v>       0.02000000 </v>
   <v>       0.02000000 </v>
   <v>       0.02000000 </v>
   <v>       0.02000000 </v>
   <v>       0.02000000 </v>
   <v>       0.02000000 </v>
   <v>       0.02000000 </v>
   <v>       0.02000000 </v>
   <v>       0.02000000 </v>
   <v>       0.02000000 </v>
   <v>       0.02000000 </v>
   <v>       0.02000000 </v>
   <v>       0.02000000 </v>
   <v>       0.02000000 </v>
   <v>       0.02000000 </v>
   <v>       0.02000000 </v>
   <v>       0.02000000 </v>
   <v>       0.02000000 </v>
   <v>       0.02000000 </v>
   <v>       0.02000000 </v>
   <v>       0.02000000 </v>
   <v>       0.02000000 </v>
   <v>       0.02000000 </v>
   <v>       0.02000000 </v>
   <v>       0.02000000 </v>
   <v>       0.02000000 </v>
   <v>       0.02000000 </v>
   <v>       0.02000000 </v>
   <v>       0.02000000 </v>
   <v>       0.02000000 </v>
   <v>       0.02000000 </v>
   <v>       0.02000000 </v>
   <v>       0.02000000 </v>
   <v>       0.02000000 </v>
   <v>       0.02000000 </v>
   <v>       0.02000000 </v>
   <v>       0.02000000 </v>
   <v>       0.02000000 </v>
  </varray>
 </kpoints>
 <parameters>
  <separator name="general" >
   <i type="string" name="SYSTEM">MoTe2</i>
   <i type="logical" name="LCOMPAT"> F  </i>
  </separator>
  <separator name="electronic" >
   <i type="string" name="PREC">accura</i>
   <i name="ENMAX">    400.00000000</i>
   <i name="ENAUG">    368.79200000</i>
   <i name="EDIFF">      0.00010000</i>
   <i type="int" name="IALGO">    38</i>
   <i type="int" name="IWAVPR">    11</i>
   <i type="int" name="NBANDS">    48</i>
   <i name="NELECT">     72.00000000</i>
   <i type="int" name="TURBO">     0</i>
   <i type="int" name="IRESTART">     0</i>
   <i type="int" name="NREBOOT">     0</i>
   <i type="int" name="NMIN">     0</i>
   <i name="EREF">      0.00000000</i>
   <separator name="electronic smearing" >
    <i type="int" name="ISMEAR">     0</i>
    <i name="SIGMA">      0.05000000</i>
    <i name="KSPACING">      0.50000000</i>
    <i type="logical" name="KGAMMA"> T  </i>
   </separator>
   <separator name="electronic projectors" >
    <i type="logical" name="LREAL"> F  </i>
    <v name="ROPT">      0.00000000      0.00000000</v>
    <i type="int" name="LMAXPAW">  -100</i>
    <i type="int" name="LMAXMIX">     2</i>
    <i type="logical" name="NLSPLINE"> F  </i>
   </separator>
   <separator name="electronic startup" >
    <i type="int" name="ISTART">     0</i>
    <i type="int" name="ICHARG">     2</i>
    <i type="int" name="INIWAV">     1</i>
   </separator>
   <separator name="electronic spin" >
    <i type="int" name="ISPIN">     1</i>
    <i type="logical" name="LNONCOLLINEAR"> F  </i>
    <v name="MAGMOM">      1.00000000      1.00000000      1.00000000      1.00000000      1.00000000      1.00000000      1.00000000      1.00000000      1.00000000      1.00000000      1.00000000      1.00000000</v>
    <i name="NUPDOWN">     -1.00000000</i>
    <i type="logical" name="LSORBIT"> F  </i>
    <v name="SAXIS">      0.00000000      0.00000000      1.00000000</v>
    <i type="logical" name="LSPIRAL"> F  </i>
    <v name="QSPIRAL">      0.00000000      0.00000000      0.00000000</v>
    <i type="logical" name="LZEROZ"> F  </i>
   </separator>
   <separator name="electronic exchange-correlation" >
    <i type="logical" name="LASPH"> T  </i>
    <i type="logical" name="LMETAGGA"> F  </i>
   </separator>
   <separator name="electronic convergence" >
    <i type="int" name="NELM">    60</i>
    <i type="int" name="NELMDL">    -5</i>
    <i type="int" name="NELMIN">     2</i>
    <i name="ENINI">    400.00000000</i>
    <separator name="electronic convergence detail" >
     <i type="logical" name="LDIAG"> T  </i>
     <i type="logical" name="LSUBROT"> F  </i>
     <i name="WEIMIN">      0.00100000</i>
     <i name="EBREAK">      0.00000052</i>
     <i name="DEPER">      0.30000000</i>
     <i type="int" name="NRMM">     4</i>
     <i name="TIME">      0.40000000</i>
    </separator>
   </separator>
   <separator name="electronic mixer" >
    <i name="AMIX">      0.40000000</i>
    <i name="BMIX">      1.00000000</i>
    <i name="AMIN">      0.10000000</i>
    <i name="AMIX_MAG">      1.60000000</i>
    <i name="BMIX_MAG">      1.00000000</i>
    <separator name="electronic mixer details" >
     <i type="int" name="IMIX">     4</i>
     <i type="logical" name="MIXFIRST"> F  </i>
     <i type="int" name="MAXMIX">   -45</i>
     <i name="WC">    100.00000000</i>
     <i type="int" name="INIMIX">     1</i>
     <i type="int" name="MIXPRE">     1</i>
     <i type="int" name="MREMOVE">     5</i>
    </separator>
   </separator>
   <separator name="electronic dipolcorrection" >
    <i type="logical" name="LDIPOL"> T  </i>
    <i type="logical" name="LMONO"> F  </i>
    <i type="int" name="IDIPOL">     3</i>
    <i name="EPSILON">      1.00000000</i>
    <v name="DIPOL">   -100.00000000   -100.00000000   -100.00000000</v>
    <i name="EFIELD">      0.00000000</i>
   </separator>
  </separator>
  <separator name="grids" >
   <i type="int" name="NGX">    24</i>
   <i type="int" name="NGY">    40</i>
   <i type="int" name="NGZ">   240</i>
   <i type="int" name="NGXF">    48</i>
   <i type="int" name="NGYF">    80</i>
   <i type="int" name="NGZF">   480</i>
   <i type="logical" name="ADDGRID"> F  </i>
  </separator>
  <separator name="ionic" >
   <i type="int" name="NSW">  1000</i>
   <i type="int" name="IBRION">     2</i>
   <i type="int" name="MDALGO">     0</i>
   <i type="int" name="ISIF">     2</i>
   <i name="PSTRESS">      0.00000000</i>
   <i name="EDIFFG">      0.00100000</i>
   <i type="int" name="NFREE">     1</i>
   <i name="POTIM">      0.50000000</i>
   <i name="SMASS">     -3.00000000</i>
   <i name="SCALEE">      1.00000000</i>
  </separator>
  <separator name="ionic md" >
   <i name="TEBEG">      0.00010000</i>
   <i name="TEEND">      0.00010000</i>
   <i type="int" name="NBLOCK">     1</i>
   <i type="int" name="KBLOCK">  1000</i>
   <i type="int" name="NPACO">   256</i>
   <i name="APACO">     16.00000000</i>
  </separator>
  <separator name="symmetry" >
   <i type="int" name="ISYM">     2</i>
   <i name="SYMPREC">      0.00001000</i>
  </separator>
  <separator name="dos" >
   <i type="int" name="LORBIT">     0</i>
   <v name="RWIGS">     -1.00000000     -1.00000000</v>
   <i type="int" name="NEDOS">   301</i>
   <i name="EMIN">     10.00000000</i>
   <i name="EMAX">    -10.00000000</i>
   <i name="EFERMI">      0.00000000</i>
  </separator>
  <separator name="writing" >
   <i type="int" name="NWRITE">     1</i>
   <i type="logical" name="LWAVE"> F  </i>
   <i type="logical" name="LDOWNSAMPLE"> F  </i>
   <i type="logical" name="LCHARG"> T  </i>
   <i type="logical" name="LPARD"> F  </i>
   <i type="logical" name="LVTOT"> T  </i>
   <i type="logical" name="LVHAR"> F  </i>
   <i type="logical" name="LELF"> F  </i>
   <i type="logical" name="LOPTICS"> F  </i>
   <v name="STM">      0.00000000      0.00000000      0.00000000      0.00000000      0.00000000      0.00000000      0.00000000</v>
  </separator>
  <separator name="performance" >
   <i type="int" name="NPAR">    16</i>
   <i type="int" name="NSIM">     4</i>
   <i type="int" name="NBLK">    -1</i>
   <i type="logical" name="LPLANE"> T  </i>
   <i type="logical" name="LSCALAPACK"> T  </i>
   <i type="logical" name="LSCAAWARE"> F  </i>
   <i type="logical" name="LSCALU"> F  </i>
   <i type="logical" name="LASYNC"> F  </i>
   <i type="logical" name="LORBITALREAL"> F  </i>
  </separator>
  <separator name="miscellaneous" >
   <i type="int" name="IDIOT">     3</i>
   <i type="int" name="ISPECIAL">     0</i>
   <i type="logical" name="LMUSIC"> F  </i>
   <v name="POMASS">    127.60000000     95.94000000</v>
   <v name="DARWINR">      0.00000000      0.00000000</v>
   <v name="DARWINV">      1.00000000      1.00000000</v>
   <i type="logical" name="LCORR"> T  </i>
  </separator>
  <i type="logical" name="GGA_COMPAT"> T  </i>
  <i type="logical" name="LBERRY"> F  </i>
  <i type="int" name="ICORELEVEL">     0</i>
  <i type="logical" name="LDAU"> F  </i>
  <i type="int" name="I_CONSTRAINED_M">     0</i>
  <separator name="electronic exchange-correlation" >
   <i type="string" name="GGA">--</i>
   <i type="int" name="VOSKOWN">     0</i>
   <i type="logical" name="LHFCALC"> F  </i>
   <i type="string" name="PRECFOCK"></i>
   <i type="logical" name="LSYMGRAD"> F  </i>
   <i type="logical" name="LHFONE"> F  </i>
   <i type="logical" name="LRHFCALC"> F  </i>
   <i type="logical" name="LTHOMAS"> F  </i>
   <i type="logical" name="LMODELHF"> F  </i>
   <i name="ENCUT4O">     -1.00000000</i>
   <i type="int" name="EXXOEP">     0</i>
   <i type="int" name="FOURORBIT">     0</i>
   <i name="AEXX">      0.00000000</i>
   <i name="HFALPHA">      0.00000000</i>
   <i name="MCALPHA">      0.00000000</i>
   <i name="ALDAX">      1.00000000</i>
   <i name="AGGAX">      1.00000000</i>
   <i name="ALDAC">      1.00000000</i>
   <i name="AGGAC">      1.00000000</i>
   <i type="int" name="NKREDX">     1</i>
   <i type="int" name="NKREDY">     1</i>
   <i type="int" name="NKREDZ">     1</i>
   <i type="logical" name="SHIFTRED"> F  </i>
   <i type="logical" name="ODDONLY"> F  </i>
   <i type="logical" name="EVENONLY"> F  </i>
   <i type="int" name="LMAXFOCK">     0</i>
   <i type="int" name="NMAXFOCKAE">     0</i>
   <i type="logical" name="LFOCKAEDFT"> F  </i>
   <i name="HFSCREEN">      0.00000000</i>
   <i name="HFSCREENC">      0.00000000</i>
   <i type="int" name="NBANDSGWLOW">     0</i>
  </separator>
  <separator name="vdW DFT" >
   <i type="logical" name="LUSE_VDW"> T  </i>
   <i name="Zab_VDW">     -0.84910000</i>
   <i name="PARAM1">      0.12340000</i>
   <i name="PARAM2">      1.00000000</i>
   <i name="PARAM3">      0.00000000</i>
  </separator>
  <separator name="model GW" >
   <i type="int" name="MODEL_GW">     0</i>
   <i name="MODEL_EPS0">     37.20367468</i>
   <i name="MODEL_ALPHA">      1.00000000</i>
  </separator>
  <separator name="linear response parameters" >
   <i type="logical" name="LEPSILON"> F  </i>
   <i type="logical" name="LRPA"> F  </i>
   <i type="logical" name="LNABLA"> F  </i>
   <i type="logical" name="LVEL"> F  </i>
   <i type="int" name="KINTER">     0</i>
   <i name="CSHIFT">      0.10000000</i>
   <i name="OMEGAMAX">     -1.00000000</i>
   <i name="DEG_THRESHOLD">      0.00200000</i>
   <i name="RTIME">     -0.10000000</i>
   <i name="WPLASMAI">      0.00000000</i>
   <v name="DFIELD">      0.00000000      0.00000000      0.00000000</v>
   <v name="WPLASMA">      0.00000000      0.00000000      0.00000000      0.00000000      0.00000000      0.00000000      0.00000000      0.00000000      0.00000000</v>
  </separator>
  <separator name="orbital magnetization" >
   <i type="logical" name="NUCIND"> F  </i>
   <v name="MAGPOS">      0.00000000      0.00000000      0.00000000</v>
   <i type="logical" name="LNICSALL"> T  </i>
   <i type="logical" name="ORBITALMAG"> F  </i>
   <i type="logical" name="LMAGBLOCH"> F  </i>
   <i type="logical" name="LCHIMAG"> F  </i>
   <i type="logical" name="LGAUGE"> T  </i>
   <i type="int" name="MAGATOM">     0</i>
   <v name="MAGDIPOL">      0.00000000      0.00000000      0.00000000</v>
   <v name="AVECCONST">      0.00000000      0.00000000      0.00000000</v>
  </separator>
  <separator name="response functions" >
   <i type="logical" name="LADDER"> F  </i>
   <i type="logical" name="LRPAFORCE"> F  </i>
   <i type="logical" name="LFXC"> F  </i>
   <i type="logical" name="LHARTREE"> T  </i>
   <i type="int" name="IBSE">     0</i>
   <v type="int" name="KPOINT">    -1     0     0     0</v>
   <i type="logical" name="LTCTE"> F  </i>
   <i type="logical" name="LTETE"> F  </i>
   <i type="logical" name="LTRIPLET"> F  </i>
   <i type="logical" name="LFXCEPS"> F  </i>
   <i type="logical" name="LFXHEG"> F  </i>
   <i type="int" name="NATURALO">     2</i>
   <i type="logical" name="L2ORDER"> F  </i>
   <i type="logical" name="LMP2LT"> F  </i>
   <i type="logical" name="LUSEW"> F  </i>
   <i name="ENCUTGW">     -2.00000000</i>
   <i name="ENCUTGWSOFT">     -2.00000000</i>
   <i name="ENCUTLF">     -1.00000000</i>
   <i type="int" name="LMAXMP2">    -1</i>
   <i name="SCISSOR">      0.00000000</i>
   <i type="int" name="NOMEGA">     0</i>
   <i type="int" name="NOMEGAR">     0</i>
   <i type="int" name="NBANDSGW">    -1</i>
   <i type="int" name="NBANDSO">    -1</i>
   <i type="int" name="NBANDSV">    -1</i>
   <i type="int" name="NELM">     1</i>
   <i type="int" name="NELMHF">     1</i>
   <i type="int" name="DIM">     3</i>
   <i type="int" name="ANTIRES">     0</i>
   <i name="OMEGAMAX">    -30.00000000</i>
   <i name="OMEGAMIN">    -30.00000000</i>
   <i name="OMEGATL">   -200.00000000</i>
   <i type="int" name="OMEGAGRID">   140</i>
   <i name="CSHIFT">     -0.10000000</i>
   <i type="logical" name="SELFENERGY"> F  </i>
   <i type="logical" name="LSPECTRAL"> F  </i>
   <i type="logical" name="LSPECTRALGW"> F  </i>
   <i type="logical" name="LSINGLES"> F  </i>
   <i type="logical" name="LFERMIGW"> F  </i>
   <i type="logical" name="ODDONLYGW"> F  </i>
   <i type="logical" name="EVENONLYGW"> F  </i>
   <i type="int" name="NKREDLFX">     1</i>
   <i type="int" name="NKREDLFY">     1</i>
   <i type="int" name="NKREDLFZ">     1</i>
   <i type="int" name="MAXMEM">  2800</i>
   <i type="int" name="TELESCOPE">     0</i>
   <i type="int" name="TAUPAR">     1</i>
   <i type="int" name="OMEGAPAR">    -1</i>
   <i name="LAMBDA">      1.00000000</i>
  </separator>
  <separator name="External order field" >
   <i name="OFIELD_KAPPA">      0.00000000</i>
   <v name="OFIELD_K">      0.00000000      0.00000000      0.00000000</v>
   <i name="OFIELD_Q6_NEAR">      0.00000000</i>
   <i name="OFIELD_Q6_FAR">      0.00000000</i>
   <i name="OFIELD_A">      0.00000000</i>
  </separator>
 </parameters>
 <atominfo>
  <atoms>      12 </atoms>
  <types>       2 </types>
  <array name="atoms" >
   <dimension dim="1">ion</dimension>
   <field type="string">element</field>
   <field type="int">atomtype</field>
   <set>
    <rc><c>Te</c><c>   1</c></rc>
    <rc><c>Te</c><c>   1</c></rc>
    <rc><c>Te</c><c>   1</c></rc>
    <rc><c>Te</c><c>   1</c></rc>
    <rc><c>Te</c><c>   1</c></rc>
    <rc><c>Te</c><c>   1</c></rc>
    <rc><c>Te</c><c>   1</c></rc>
    <rc><c>Te</c><c>   1</c></rc>
    <rc><c>Mo</c><c>   2</c></rc>
    <rc><c>Mo</c><c>   2</c></rc>
    <rc><c>Mo</c><c>   2</c></rc>
    <rc><c>Mo</c><c>   2</c></rc>
   </set>
  </array>
  <array name="atomtypes" >
   <dimension dim="1">type</dimension>
   <field type="int">atomspertype</field>
   <field type="string">element</field>
   <field>mass</field>
   <field>valence</field>
   <field type="string">pseudopotential</field>
   <set>
    <rc><c>   8</c><c>Te</c><c>    127.60000000</c><c>      6.00000000</c><c>  PAW_PBE Te 08Apr2002                  </c></rc>
    <rc><c>   4</c><c>Mo</c><c>     95.94000000</c><c>      6.00000000</c><c>  PAW_PBE Mo 08Apr2002                  </c></rc>
   </set>
  </array>
 </atominfo>
 <structure name="initialpos" >
  <crystal>
   <varray name="basis" >
    <v>       3.50344967       0.00000000       0.00000000 </v>
    <v>       0.00000000       6.06808850       0.00000000 </v>
    <v>       0.00000000       0.00000000      35.00000000 </v>
   </varray>
   <i name="volume">    744.07349355 </i>
   <varray name="rec_basis" >
    <v>       0.28543296       0.00000000       0.00000000 </v>
    <v>       0.00000000       0.16479654       0.00000000 </v>
    <v>       0.00000000       0.00000000       0.02857143 </v>
   </varray>
  </crystal>
  <varray name="positions" >
   <v>       0.00000000       0.66666667       0.16132393 </v>
   <v>       0.00000000       0.66666667       0.05791385 </v>
   <v>       0.50000000       0.16666667       0.16132393 </v>
   <v>       0.50000000       0.16666667       0.05791385 </v>
   <v>       0.00000000       0.33333333       0.38056172 </v>
   <v>       0.00000000       0.33333333       0.27715164 </v>
   <v>       0.50000000       0.83333333       0.38056172 </v>
   <v>       0.50000000       0.83333333       0.27715164 </v>
   <v>       0.00000000       0.00000000       0.10961889 </v>
   <v>       0.50000000       0.50000000       0.10961889 </v>
   <v>       0.00000000       0.00000000       0.32885668 </v>
   <v>       0.50000000       0.50000000       0.32885668 </v>
  </varray>
 </structure>
 <calculation>
  <scstep>
   <time name="dav">    4.72    4.72</time>
   <time name="total">    6.60    6.62</time>
   <dipole>
    <v name="dipole">      0.00000000       0.00000000      -0.00011737 </v>
    <i name="Tr[quadrupol]">   -312.60372971 </i>
    <i name="Echarged">      0.00000000 </i>
    <i name="Edipol_quadrupol">      0.00000000 </i>
    <i name="Eion">      0.00000000 </i>
   </dipole>
   <energy>
    <i name="alphaZ">     47.63601950 </i>
    <i name="ewald">  19990.85026806 </i>
    <i name="hartreedc"> -22520.99543607 </i>
    <i name="XCdc">   -355.64472798 </i>
    <i name="pawpsdc">   2633.27012201 </i>
    <i name="pawaedc">  -2474.01667568 </i>
    <i name="eentropy">     -0.00910931 </i>
    <i name="bandstr">     89.01284541 </i>
    <i name="atom">   2656.22846841 </i>
    <i name="e_fr_energy">     66.33177436 </i>
    <i name="e_wo_entrp">     66.34088367 </i>
    <i name="e_0_energy">     66.33632901 </i>
   </energy>
  </scstep>
  <scstep>
   <time name="dav">    6.11    6.12</time>
   <time name="total">    6.12    6.12</time>
   <dipole>
    <v name="dipole">      0.00000000       0.00000000      -0.00011737 </v>
    <i name="Tr[quadrupol]">   -312.60372971 </i>
    <i name="Echarged">      0.00000000 </i>
    <i name="Edipol_quadrupol">      0.00000000 </i>
    <i name="Eion">      0.00000000 </i>
   </dipole>
   <energy>
    <i name="e_fr_energy">   -392.18880089 </i>
    <i name="e_wo_entrp">   -392.18873816 </i>
    <i name="e_0_energy">   -392.18876953 </i>
   </energy>
  </scstep>
  <scstep>
   <time name="dav">    5.58    5.66</time>
   <time name="total">    5.58    5.66</time>
   <dipole>
    <v name="dipole">      0.00000000       0.00000000      -0.00011737 </v>
    <i name="Tr[quadrupol]">   -312.60372971 </i>
    <i name="Echarged">      0.00000000 </i>
    <i name="Edipol_quadrupol">      0.00000000 </i>
    <i name="Eion">      0.00000000 </i>
   </dipole>
   <energy>
    <i name="e_fr_energy">   -434.54558955 </i>
    <i name="e_wo_entrp">   -434.54558955 </i>
    <i name="e_0_energy">   -434.54558955 </i>
   </energy>
  </scstep>
  <scstep>
   <time name="dav">    6.45    6.45</time>
   <time name="total">    6.45    6.45</time>
   <dipole>
    <v name="dipole">      0.00000000       0.00000000      -0.00011737 </v>
    <i name="Tr[quadrupol]">   -312.60372971 </i>
    <i name="Echarged">      0.00000000 </i>
    <i name="Edipol_quadrupol">      0.00000000 </i>
    <i name="Eion">      0.00000000 </i>
   </dipole>
   <energy>
    <i name="e_fr_energy">   -436.08926246 </i>
    <i name="e_wo_entrp">   -436.08926246 </i>
    <i name="e_0_energy">   -436.08926246 </i>
   </energy>
  </scstep>
  <scstep>
   <time name="dav">    5.80    5.80</time>
   <time name="total">    6.53    6.53</time>
   <dipole>
    <v name="dipole">      0.00000000       0.00000000      -0.00011737 </v>
    <i name="Tr[quadrupol]">   -312.60372971 </i>
    <i name="Echarged">      0.00000000 </i>
    <i name="Edipol_quadrupol">      0.00000000 </i>
    <i name="Eion">      0.00000000 </i>
   </dipole>
   <energy>
    <i name="e_fr_energy">   -436.11290742 </i>
    <i name="e_wo_entrp">   -436.11290742 </i>
    <i name="e_0_energy">   -436.11290742 </i>
   </energy>
  </scstep>
  <scstep>
   <time name="dav">    5.09    5.09</time>
   <time name="total">    7.49    7.49</time>
   <dipole>
    <v name="dipole">      0.00000000       0.00000000      -0.00033025 </v>
    <i name="Tr[quadrupol]">   -313.22712099 </i>
    <i name="Echarged">      0.00000000 </i>
    <i name="Edipol_quadrupol">      0.00000000 </i>
    <i name="Eion">      0.00000000 </i>
   </dipole>
   <energy>
    <i name="e_fr_energy">   -439.83213772 </i>
    <i name="e_wo_entrp">   -439.83213772 </i>
    <i name="e_0_energy">   -439.83213772 </i>
   </energy>
  </scstep>
  <scstep>
   <time name="dav">    5.10    5.10</time>
   <time name="total">    7.49    7.50</time>
   <dipole>
    <v name="dipole">      0.00000000       0.00000000       0.00008438 </v>
    <i name="Tr[quadrupol]">   -314.79175918 </i>
    <i name="Echarged">      0.00000000 </i>
    <i name="Edipol_quadrupol">      0.00000000 </i>
    <i name="Eion">      0.00000000 </i>
   </dipole>
   <energy>
    <i name="e_fr_energy">   -439.42465110 </i>
    <i name="e_wo_entrp">   -439.42465110 </i>
    <i name="e_0_energy">   -439.42465110 </i>
   </energy>
  </scstep>
  <scstep>
   <time name="dav">    5.38    5.38</time>
   <time name="total">    7.81    7.86</time>
   <dipole>
    <v name="dipole">      0.00000000       0.00000000       0.00007743 </v>
    <i name="Tr[quadrupol]">   -314.83504322 </i>
    <i name="Echarged">      0.00000000 </i>
    <i name="Edipol_quadrupol">      0.00000000 </i>
    <i name="Eion">      0.00000000 </i>
   </dipole>
   <energy>
    <i name="e_fr_energy">   -439.02282527 </i>
    <i name="e_wo_entrp">   -439.02282527 </i>
    <i name="e_0_energy">   -439.02282527 </i>
   </energy>
  </scstep>
  <scstep>
   <time name="dav">    5.50    5.50</time>
   <time name="total">    7.98    7.98</time>
   <dipole>
    <v name="dipole">      0.00000000       0.00000000       0.00018502 </v>
    <i name="Tr[quadrupol]">   -314.86725495 </i>
    <i name="Echarged">      0.00000000 </i>
    <i name="Edipol_quadrupol">      0.00000000 </i>
    <i name="Eion">      0.00000000 </i>
   </dipole>
   <energy>
    <i name="e_fr_energy">   -438.98228505 </i>
    <i name="e_wo_entrp">   -438.98228505 </i>
    <i name="e_0_energy">   -438.98228505 </i>
   </energy>
  </scstep>
  <scstep>
   <time name="dav">    5.60    5.60</time>
   <time name="total">    7.98    8.89</time>
   <dipole>
    <v name="dipole">      0.00000000       0.00000000       0.00005846 </v>
    <i name="Tr[quadrupol]">   -315.07847021 </i>
    <i name="Echarged">      0.00000000 </i>
    <i name="Edipol_quadrupol">      0.00000000 </i>
    <i name="Eion">      0.00000000 </i>
   </dipole>
   <energy>
    <i name="e_fr_energy">   -438.97934928 </i>
    <i name="e_wo_entrp">   -438.97934928 </i>
    <i name="e_0_energy">   -438.97934928 </i>
   </energy>
  </scstep>
  <scstep>
   <time name="dav">    5.48    5.53</time>
   <time name="total">    7.91    7.97</time>
   <dipole>
    <v name="dipole">      0.00000000       0.00000000       0.00006214 </v>
    <i name="Tr[quadrupol]">   -315.11495851 </i>
    <i name="Echarged">      0.00000000 </i>
    <i name="Edipol_quadrupol">      0.00000000 </i>
    <i name="Eion">      0.00000000 </i>
   </dipole>
   <energy>
    <i name="e_fr_energy">   -439.01396330 </i>
    <i name="e_wo_entrp">   -439.01396330 </i>
    <i name="e_0_energy">   -439.01396330 </i>
   </energy>
  </scstep>
  <scstep>
   <time name="dav">    5.83    5.83</time>
   <time name="total">    8.27    8.27</time>
   <dipole>
    <v name="dipole">      0.00000000       0.00000000       0.00006862 </v>
    <i name="Tr[quadrupol]">   -315.16323033 </i>
    <i name="Echarged">      0.00000000 </i>
    <i name="Edipol_quadrupol">      0.00000000 </i>
    <i name="Eion">      0.00000000 </i>
   </dipole>
   <energy>
    <i name="e_fr_energy">   -439.00368436 </i>
    <i name="e_wo_entrp">   -439.00368436 </i>
    <i name="e_0_energy">   -439.00368436 </i>
   </energy>
  </scstep>
  <scstep>
   <time name="dav">    5.51    5.51</time>
   <time name="total">    7.94    7.95</time>
   <dipole>
    <v name="dipole">      0.00000000       0.00000000      -0.00907994 </v>
    <i name="Tr[quadrupol]">   -315.36719968 </i>
    <i name="Echarged">      0.00000000 </i>
    <i name="Edipol_quadrupol">      0.00000000 </i>
    <i name="Eion">      0.00000000 </i>
   </dipole>
   <energy>
    <i name="e_fr_energy">   -438.97037817 </i>
    <i name="e_wo_entrp">   -438.97037817 </i>
    <i name="e_0_energy">   -438.97037817 </i>
   </energy>
  </scstep>
  <scstep>
   <time name="dav">    5.00    5.00</time>
   <time name="total">    7.36    7.36</time>
   <dipole>
    <v name="dipole">      0.00000000       0.00000000       0.00431027 </v>
    <i name="Tr[quadrupol]">   -315.41571825 </i>
    <i name="Echarged">      0.00000000 </i>
    <i name="Edipol_quadrupol">      0.00000000 </i>
    <i name="Eion">      0.00000000 </i>
   </dipole>
   <energy>
    <i name="e_fr_energy">   -438.98457251 </i>
    <i name="e_wo_entrp">   -438.98457251 </i>
    <i name="e_0_energy">   -438.98457251 </i>
   </energy>
  </scstep>
  <scstep>
   <time name="dav">    5.42    5.44</time>
   <time name="total">    7.77    7.78</time>
   <dipole>
    <v name="dipole">      0.00000000       0.00000000      -0.00705231 </v>
    <i name="Tr[quadrupol]">   -315.50692677 </i>
    <i name="Echarged">      0.00000000 </i>
    <i name="Edipol_quadrupol">      0.00000000 </i>
    <i name="Eion">      0.00000000 </i>
   </dipole>
   <energy>
    <i name="e_fr_energy">   -438.97698066 </i>
    <i name="e_wo_entrp">   -438.97698066 </i>
    <i name="e_0_energy">   -438.97698066 </i>
   </energy>
  </scstep>
  <scstep>
   <time name="dav">    5.76    5.76</time>
   <time name="total">    8.10    8.10</time>
   <dipole>
    <v name="dipole">      0.00000000       0.00000000       0.00596408 </v>
    <i name="Tr[quadrupol]">   -315.60414598 </i>
    <i name="Echarged">      0.00000000 </i>
    <i name="Edipol_quadrupol">      0.00000000 </i>
    <i name="Eion">      0.00000000 </i>
   </dipole>
   <energy>
    <i name="e_fr_energy">   -438.96321979 </i>
    <i name="e_wo_entrp">   -438.96321979 </i>
    <i name="e_0_energy">   -438.96321979 </i>
   </energy>
  </scstep>
  <scstep>
   <time name="dav">    5.06    5.06</time>
   <time name="total">    7.49    7.49</time>
   <dipole>
    <v name="dipole">      0.00000000       0.00000000      -0.00637090 </v>
    <i name="Tr[quadrupol]">   -315.63393824 </i>
    <i name="Echarged">      0.00000000 </i>
    <i name="Edipol_quadrupol">      0.00000000 </i>
    <i name="Eion">      0.00000000 </i>
   </dipole>
   <energy>
    <i name="e_fr_energy">   -438.96270326 </i>
    <i name="e_wo_entrp">   -438.96270326 </i>
    <i name="e_0_energy">   -438.96270326 </i>
   </energy>
  </scstep>
  <scstep>
   <time name="dav">    5.44    5.44</time>
   <time name="total">    7.81    7.81</time>
   <dipole>
    <v name="dipole">      0.00000000       0.00000000       0.00536572 </v>
    <i name="Tr[quadrupol]">   -315.70137572 </i>
    <i name="Echarged">      0.00000000 </i>
    <i name="Edipol_quadrupol">      0.00000000 </i>
    <i name="Eion">      0.00000000 </i>
   </dipole>
   <energy>
    <i name="e_fr_energy">   -438.96374129 </i>
    <i name="e_wo_entrp">   -438.96374129 </i>
    <i name="e_0_energy">   -438.96374129 </i>
   </energy>
  </scstep>
  <scstep>
   <time name="dav">    5.75    5.77</time>
   <time name="total">    8.11    8.14</time>
   <dipole>
    <v name="dipole">      0.00000000       0.00000000       0.01036941 </v>
    <i name="Tr[quadrupol]">   -315.75391652 </i>
    <i name="Echarged">      0.00000000 </i>
    <i name="Edipol_quadrupol">      0.00000000 </i>
    <i name="Eion">      0.00000000 </i>
   </dipole>
   <energy>
    <i name="e_fr_energy">   -438.96392365 </i>
    <i name="e_wo_entrp">   -438.96392365 </i>
    <i name="e_0_energy">   -438.96392365 </i>
   </energy>
  </scstep>
  <scstep>
   <time name="dav">    6.34    6.34</time>
   <time name="total">    8.73    8.73</time>
   <dipole>
    <v name="dipole">      0.00000000       0.00000000      -0.00295548 </v>
    <i name="Tr[quadrupol]">   -315.78023528 </i>
    <i name="Echarged">      0.00000000 </i>
    <i name="Edipol_quadrupol">      0.00000000 </i>
    <i name="Eion">      0.00000000 </i>
   </dipole>
   <energy>
    <i name="e_fr_energy">   -438.96437209 </i>
    <i name="e_wo_entrp">   -438.96437209 </i>
    <i name="e_0_energy">   -438.96437209 </i>
   </energy>
  </scstep>
  <scstep>
   <time name="dav">    5.02    5.03</time>
   <time name="total">    7.40    7.41</time>
   <dipole>
    <v name="dipole">      0.00000000       0.00000000       0.00447249 </v>
    <i name="Tr[quadrupol]">   -315.82832442 </i>
    <i name="Echarged">      0.00000000 </i>
    <i name="Edipol_quadrupol">      0.00000000 </i>
    <i name="Eion">      0.00000000 </i>
   </dipole>
   <energy>
    <i name="e_fr_energy">   -438.96468822 </i>
    <i name="e_wo_entrp">   -438.96468822 </i>
    <i name="e_0_energy">   -438.96468822 </i>
   </energy>
  </scstep>
  <scstep>
   <time name="dav">    4.79    4.79</time>
   <time name="total">    6.40    6.40</time>
   <dipole>
    <v name="dipole">      0.00000000       0.00000000       0.00639132 </v>
    <i name="Tr[quadrupol]">   -315.85210640 </i>
    <i name="Echarged">      0.00000000 </i>
    <i name="Edipol_quadrupol">      0.00000000 </i>
    <i name="Eion">      0.00000000 </i>
   </dipole>
   <energy>
    <i name="alphaZ">     47.51548068 </i>
    <i name="ewald">  19990.85026806 </i>
    <i name="hartreedc"> -22560.27242083 </i>
    <i name="XCdc">   -372.46953420 </i>
    <i name="pawpsdc">   5307.10241026 </i>
    <i name="pawaedc">  -5157.32418951 </i>
    <i name="eentropy">     -0.00000000 </i>
    <i name="bandstr">   -350.59516475 </i>
    <i name="atom">   2656.22846841 </i>
    <i name="e_fr_energy">   -438.96468187 </i>
    <i name="e_wo_entrp">   -438.96468187 </i>
    <i name="e_0_energy">   -438.96468187 </i>
   </energy>
  </scstep>
  <structure>
   <crystal>
    <varray name="basis" >
     <v>       3.50344967       0.00000000       0.00000000 </v>
     <v>       0.00000000       6.06808850       0.00000000 </v>
     <v>       0.00000000       0.00000000      35.00000000 </v>
    </varray>
    <i name="volume">    744.07349355 </i>
    <varray name="rec_basis" >
     <v>       0.28543296       0.00000000       0.00000000 </v>
     <v>       0.00000000       0.16479654       0.00000000 </v>
     <v>       0.00000000       0.00000000       0.02857143 </v>
    </varray>
   </crystal>
   <varray name="positions" >
    <v>       0.00000000       0.66666667       0.16132393 </v>
    <v>       0.00000000       0.66666667       0.05791385 </v>
    <v>       0.50000000       0.16666667       0.16132393 </v>
    <v>       0.50000000       0.16666667       0.05791385 </v>
    <v>       0.00000000       0.33333333       0.38056172 </v>
    <v>       0.00000000       0.33333333       0.27715164 </v>
    <v>       0.50000000       0.83333333       0.38056172 </v>
    <v>       0.50000000       0.83333333       0.27715164 </v>
    <v>       0.00000000       0.00000000       0.10961889 </v>
    <v>       0.50000000       0.50000000       0.10961889 </v>
    <v>       0.00000000       0.00000000       0.32885668 </v>
    <v>       0.50000000       0.50000000       0.32885668 </v>
   </varray>
  </structure>
  <varray name="forces" >
   <v>      -0.00000000      -0.00050698      -0.11802525 </v>
   <v>      -0.00000000      -0.00048750       0.18431249 </v>
   <v>      -0.00000000      -0.00050698      -0.11802525 </v>
   <v>      -0.00000000      -0.00048750       0.18431249 </v>
   <v>      -0.00000000       0.00048750      -0.18431249 </v>
   <v>      -0.00000000       0.00050698       0.11802525 </v>
   <v>      -0.00000000       0.00048750      -0.18431249 </v>
   <v>      -0.00000000       0.00050698       0.11802525 </v>
   <v>       0.00000000       0.00007346      -0.00272291 </v>
   <v>       0.00000000       0.00007346      -0.00272291 </v>
   <v>      -0.00000000      -0.00007346       0.00272291 </v>
   <v>      -0.00000000      -0.00007346       0.00272291 </v>
  </varray>
  <varray name="stress" >
   <v>      -3.58798203       0.00000000       0.00000000 </v>
   <v>       0.00000000      -3.59642788      -0.00004952 </v>
   <v>       0.00000000      -0.00005066      -8.63858353 </v>
  </varray>
  <energy>
   <i name="e_fr_energy">   -438.96468187 </i>
   <i name="e_wo_entrp">   -438.96468187 </i>
   <i name="e_0_energy">     -0.00000000 </i>
  </energy>
  <time name="totalsc">  179.75  181.20</time>
 </calculation>
 <calculation>
  <scstep>
   <time name="dav">    4.67    4.67</time>
   <time name="total">    7.01    7.01</time>
   <dipole>
    <v name="dipole">      0.00000000       0.00000000       0.00648898 </v>
    <i name="Tr[quadrupol]">   -315.85826560 </i>
    <i name="Echarged">      0.00000000 </i>
    <i name="Edipol_quadrupol">      0.00000000 </i>
    <i name="Eion">      0.00000000 </i>
   </dipole>
   <energy>
    <i name="alphaZ">     47.48885102 </i>
    <i name="ewald">  20020.78982915 </i>
    <i name="hartreedc"> -22589.46133679 </i>
    <i name="XCdc">   -372.40983541 </i>
    <i name="pawpsdc">   5314.40344881 </i>
    <i name="pawaedc">  -5164.61808781 </i>
    <i name="eentropy">     -0.00000000 </i>
    <i name="bandstr">   -351.39234231 </i>
    <i name="atom">   2656.22846841 </i>
    <i name="e_fr_energy">   -438.97100493 </i>
    <i name="e_wo_entrp">   -438.97100493 </i>
    <i name="e_0_energy">   -438.97100493 </i>
   </energy>
  </scstep>
  <scstep>
   <time name="dav">    4.83    4.83</time>
   <time name="total">    7.20    7.20</time>
   <dipole>
    <v name="dipole">      0.00000000       0.00000000      -0.00028878 </v>
    <i name="Tr[quadrupol]">   -315.84948688 </i>
    <i name="Echarged">      0.00000000 </i>
    <i name="Edipol_quadrupol">      0.00000000 </i>
    <i name="Eion">      0.00000000 </i>
   </dipole>
   <energy>
    <i name="e_fr_energy">   -438.97236976 </i>
    <i name="e_wo_entrp">   -438.97236976 </i>
    <i name="e_0_energy">   -438.97236976 </i>
   </energy>
  </scstep>
  <scstep>
   <time name="dav">    5.59    5.66</time>
   <time name="total">    7.24    7.31</time>
   <dipole>
    <v name="dipole">      0.00000000       0.00000000       0.00276567 </v>
    <i name="Tr[quadrupol]">   -315.84720962 </i>
    <i name="Echarged">      0.00000000 </i>
    <i name="Edipol_quadrupol">      0.00000000 </i>
    <i name="Eion">      0.00000000 </i>
   </dipole>
   <energy>
    <i name="alphaZ">     47.60256218 </i>
    <i name="ewald">  20020.78982915 </i>
    <i name="hartreedc"> -22589.41650245 </i>
    <i name="XCdc">   -372.40980018 </i>
    <i name="pawpsdc">   5336.52495665 </i>
    <i name="pawaedc">  -5186.77836891 </i>
    <i name="eentropy">     -0.00000000 </i>
    <i name="bandstr">   -351.51355083 </i>
    <i name="atom">   2656.22846841 </i>
    <i name="e_fr_energy">   -438.97240598 </i>
    <i name="e_wo_entrp">   -438.97240598 </i>
    <i name="e_0_energy">   -438.97240598 </i>
   </energy>
  </scstep>
  <structure>
   <crystal>
    <varray name="basis" >
     <v>       3.50344967       0.00000000       0.00000000 </v>
     <v>       0.00000000       6.06808850       0.00000000 </v>
     <v>       0.00000000       0.00000000      35.00000000 </v>
    </varray>
    <i name="volume">    744.07349355 </i>
    <varray name="rec_basis" >
     <v>       0.28543296       0.00000000       0.00000000 </v>
     <v>       0.00000000       0.16479654       0.00000000 </v>
     <v>       0.00000000       0.00000000       0.02857143 </v>
    </varray>
   </crystal>
   <varray name="positions" >
    <v>      -0.00000000       0.66666264       0.16116125 </v>
    <v>      -0.00000000       0.66666279       0.05816790 </v>
    <v>       0.50000000       0.16666264       0.16116125 </v>
    <v>       0.50000000       0.16666279       0.05816790 </v>
    <v>      -0.00000000       0.33333721       0.38030767 </v>
    <v>      -0.00000000       0.33333736       0.27731432 </v>
    <v>       0.50000000       0.83333721       0.38030767 </v>
    <v>       0.50000000       0.83333736       0.27731432 </v>
    <v>       0.00000000       0.00000058       0.10961514 </v>
    <v>       0.50000000       0.50000058       0.10961514 </v>
    <v>      -0.00000000      -0.00000058       0.32886043 </v>
    <v>       0.50000000       0.49999942       0.32886043 </v>
   </varray>
  </structure>
  <varray name="forces" >
   <v>      -0.00000000      -0.00036031      -0.02632783 </v>
   <v>       0.00000000      -0.00014802       0.05312567 </v>
   <v>      -0.00000000      -0.00036031      -0.02632783 </v>
   <v>       0.00000000      -0.00014802       0.05312567 </v>
   <v>       0.00000000       0.00014802      -0.05312567 </v>
   <v>       0.00000000       0.00036031       0.02632783 </v>
   <v>       0.00000000       0.00014802      -0.05312567 </v>
   <v>       0.00000000       0.00036031       0.02632783 </v>
   <v>      -0.00000000      -0.00039313       0.03713681 </v>
   <v>       0.00000000      -0.00039313       0.03713681 </v>
   <v>       0.00000000       0.00039313      -0.03713681 </v>
   <v>       0.00000000       0.00039313      -0.03713681 </v>
  </varray>
  <varray name="stress" >
   <v>      -2.47705019       0.00000000       0.00000000 </v>
   <v>       0.00000000      -2.48336985       0.00020912 </v>
   <v>       0.00000000       0.00020852      -5.69633503 </v>
  </varray>
  <energy>
   <i name="e_fr_energy">   -438.97240598 </i>
   <i name="e_wo_entrp">   -438.97240598 </i>
   <i name="e_0_energy">     -0.00000000 </i>
  </energy>
  <time name="totalsc">   34.26   34.33</time>
 </calculation>
 <calculation>
  <scstep>
   <time name="dav">    5.31    5.34</time>
   <time name="total">    7.71    7.75</time>
   <dipole>
    <v name="dipole">      0.00000000       0.00000000      -0.00289822 </v>
    <i name="Tr[quadrupol]">   -315.85039567 </i>
    <i name="Echarged">      0.00000000 </i>
    <i name="Edipol_quadrupol">      0.00000000 </i>
    <i name="Eion">      0.00000000 </i>
   </dipole>
   <energy>
    <i name="alphaZ">     47.58810008 </i>
    <i name="ewald">  20024.60316149 </i>
    <i name="hartreedc"> -22593.16197089 </i>
    <i name="XCdc">   -372.39036569 </i>
    <i name="pawpsdc">   5341.69071995 </i>
    <i name="pawaedc">  -5191.98433389 </i>
    <i name="eentropy">     -0.00000000 </i>
    <i name="bandstr">   -351.54672172 </i>
    <i name="atom">   2656.22846841 </i>
    <i name="e_fr_energy">   -438.97294224 </i>
    <i name="e_wo_entrp">   -438.97294224 </i>
    <i name="e_0_energy">   -438.97294224 </i>
   </energy>
  </scstep>
  <scstep>
   <time name="dav">    5.40    5.40</time>
   <time name="total">    7.05    7.05</time>
   <dipole>
    <v name="dipole">      0.00000000       0.00000000      -0.00324805 </v>
    <i name="Tr[quadrupol]">   -315.84131847 </i>
    <i name="Echarged">      0.00000000 </i>
    <i name="Edipol_quadrupol">      0.00000000 </i>
    <i name="Eion">      0.00000000 </i>
   </dipole>
   <energy>
    <i name="alphaZ">     47.57040372 </i>
    <i name="ewald">  20024.60316149 </i>
    <i name="hartreedc"> -22593.11968176 </i>
    <i name="XCdc">   -372.38471648 </i>
    <i name="pawpsdc">   5344.20044076 </i>
    <i name="pawaedc">  -5194.49176273 </i>
    <i name="eentropy">     -0.00000000 </i>
    <i name="bandstr">   -351.57930095 </i>
    <i name="atom">   2656.22846841 </i>
    <i name="e_fr_energy">   -438.97298753 </i>
    <i name="e_wo_entrp">   -438.97298753 </i>
    <i name="e_0_energy">   -438.97298753 </i>
   </energy>
  </scstep>
  <structure>
   <crystal>
    <varray name="basis" >
     <v>       3.50344967       0.00000000       0.00000000 </v>
     <v>       0.00000000       6.06808850       0.00000000 </v>
     <v>       0.00000000       0.00000000      35.00000000 </v>
    </varray>
    <i name="volume">    744.07349355 </i>
    <varray name="rec_basis" >
     <v>       0.28543296       0.00000000       0.00000000 </v>
     <v>       0.00000000       0.16479654       0.00000000 </v>
     <v>       0.00000000       0.00000000       0.02857143 </v>
    </varray>
   </crystal>
   <varray name="positions" >
    <v>      -0.00000000       0.66666212       0.16114054 </v>
    <v>      -0.00000000       0.66666230       0.05820024 </v>
    <v>       0.50000000       0.16666212       0.16114054 </v>
    <v>       0.50000000       0.16666230       0.05820024 </v>
    <v>      -0.00000000       0.33333770       0.38027533 </v>
    <v>      -0.00000000       0.33333788       0.27733503 </v>
    <v>       0.50000000       0.83333770       0.38027533 </v>
    <v>       0.50000000       0.83333788       0.27733503 </v>
    <v>       0.00000000       0.00000066       0.10961466 </v>
    <v>       0.50000000       0.50000066       0.10961466 </v>
    <v>      -0.00000000      -0.00000066       0.32886091 </v>
    <v>       0.50000000       0.49999934       0.32886091 </v>
   </varray>
  </structure>
  <varray name="forces" >
   <v>      -0.00000000      -0.00035140      -0.01484702 </v>
   <v>      -0.00000000      -0.00012672       0.03721466 </v>
   <v>      -0.00000000      -0.00035140      -0.01484702 </v>
   <v>      -0.00000000      -0.00012672       0.03721466 </v>
   <v>      -0.00000000       0.00012672      -0.03721466 </v>
   <v>      -0.00000000       0.00035140       0.01484702 </v>
   <v>      -0.00000000       0.00012672      -0.03721466 </v>
   <v>      -0.00000000       0.00035140       0.01484702 </v>
   <v>      -0.00000000      -0.00044613       0.04090722 </v>
   <v>       0.00000000      -0.00044613       0.04090722 </v>
   <v>       0.00000000       0.00044613      -0.04090722 </v>
   <v>      -0.00000000       0.00044613      -0.04090722 </v>
  </varray>
  <varray name="stress" >
   <v>      -2.48166073       0.00000000       0.00000000 </v>
   <v>       0.00000000      -2.49161516       0.00048977 </v>
   <v>       0.00000000       0.00048911      -5.42619053 </v>
  </varray>
  <energy>
   <i name="e_fr_energy">   -438.97298753 </i>
   <i name="e_wo_entrp">   -438.97298753 </i>
   <i name="e_0_energy">     -0.00000000 </i>
  </energy>
  <time name="totalsc">   27.42   27.47</time>
  <eigenvalues>
   <array>
    <dimension dim="1">band</dimension>
    <dimension dim="2">kpoint</dimension>
    <dimension dim="3">spin</dimension>
    <field>eigene</field>
    <field>occ</field>
    <set>
     <set comment="spin 1">
      <set comment="kpoint 1">
       <r>  -13.5544    1.0000 </r>
       <r>  -13.5064    1.0000 </r>
       <r>  -12.5978    1.0000 </r>
       <r>  -12.5194    1.0000 </r>
       <r>  -11.4069    1.0000 </r>
       <r>  -11.3870    1.0000 </r>
       <r>  -11.0732    1.0000 </r>
       <r>  -11.0460    1.0000 </r>
       <r>   -6.0822    1.0000 </r>
       <r>   -6.0760    1.0000 </r>
       <r>   -5.8330    1.0000 </r>
       <r>   -5.5381    1.0000 </r>
       <r>   -5.2275    1.0000 </r>
       <r>   -5.1443    1.0000 </r>
       <r>   -3.9463    1.0000 </r>
       <r>   -3.9007    1.0000 </r>
       <r>   -2.7522    1.0000 </r>
       <r>   -2.7381    1.0000 </r>
       <r>   -2.6610    1.0000 </r>
       <r>   -2.2904    1.0000 </r>
       <r>   -2.0694    1.0000 </r>
       <r>   -2.0628    1.0000 </r>
       <r>   -2.0178    1.0000 </r>
       <r>   -2.0113    1.0000 </r>
       <r>   -1.9947    1.0000 </r>
       <r>   -1.9543    1.0000 </r>
       <r>   -1.3162    1.0000 </r>
       <r>   -1.2550    1.0000 </r>
       <r>   -1.2488    1.0000 </r>
       <r>   -1.2319    1.0000 </r>
       <r>   -1.2213    1.0000 </r>
       <r>   -1.1987    1.0000 </r>
       <r>   -1.0582    1.0000 </r>
       <r>   -0.6873    1.0000 </r>
       <r>   -0.5613    1.0000 </r>
       <r>   -0.5313    1.0000 </r>
       <r>    1.2958    0.0000 </r>
       <r>    1.3094    0.0000 </r>
       <r>    1.5822    0.0000 </r>
       <r>    1.6302    0.0000 </r>
       <r>    2.9325    0.0000 </r>
       <r>    2.9978    0.0000 </r>
       <r>    3.0350    0.0000 </r>
       <r>    3.0929    0.0000 </r>
       <r>    3.1329    0.0000 </r>
       <r>    3.2818    0.0000 </r>
       <r>    3.2829    0.0000 </r>
       <r>    3.2943    0.0000 </r>
      </set>
      <set comment="kpoint 2">
       <r>  -13.4991    1.0000 </r>
       <r>  -13.4513    1.0000 </r>
       <r>  -12.5570    1.0000 </r>
       <r>  -12.4794    1.0000 </r>
       <r>  -11.3776    1.0000 </r>
       <r>  -11.3582    1.0000 </r>
       <r>  -11.0494    1.0000 </r>
       <r>  -11.0230    1.0000 </r>
       <r>   -6.0184    1.0000 </r>
       <r>   -6.0122    1.0000 </r>
       <r>   -5.7719    1.0000 </r>
       <r>   -5.4776    1.0000 </r>
       <r>   -5.2071    1.0000 </r>
       <r>   -5.1287    1.0000 </r>
       <r>   -3.9256    1.0000 </r>
       <r>   -3.8769    1.0000 </r>
       <r>   -2.8663    1.0000 </r>
       <r>   -2.8478    1.0000 </r>
       <r>   -2.7173    1.0000 </r>
       <r>   -2.2553    1.0000 </r>
       <r>   -2.1955    1.0000 </r>
       <r>   -2.1883    1.0000 </r>
       <r>   -2.0969    1.0000 </r>
       <r>   -1.9833    1.0000 </r>
       <r>   -1.9704    1.0000 </r>
       <r>   -1.9638    1.0000 </r>
       <r>   -1.5957    1.0000 </r>
       <r>   -1.5637    1.0000 </r>
       <r>   -1.3293    1.0000 </r>
       <r>   -1.3227    1.0000 </r>
       <r>   -1.2422    1.0000 </r>
       <r>   -1.1283    1.0000 </r>
       <r>   -1.0360    1.0000 </r>
       <r>   -0.6840    1.0000 </r>
       <r>   -0.5593    1.0000 </r>
       <r>   -0.5283    1.0000 </r>
       <r>    1.2951    0.0000 </r>
       <r>    1.3331    0.0000 </r>
       <r>    1.6263    0.0000 </r>
       <r>    1.6704    0.0000 </r>
       <r>    2.7529    0.0000 </r>
       <r>    2.7891    0.0000 </r>
       <r>    2.9366    0.0000 </r>
       <r>    2.9596    0.0000 </r>
       <r>    2.9853    0.0000 </r>
       <r>    3.0702    0.0000 </r>
       <r>    3.1283    0.0000 </r>
       <r>    3.1808    0.0000 </r>
      </set>
      <set comment="kpoint 3">
       <r>  -13.3897    1.0000 </r>
       <r>  -13.3422    1.0000 </r>
       <r>  -12.4763    1.0000 </r>
       <r>  -12.4002    1.0000 </r>
       <r>  -11.3224    1.0000 </r>
       <r>  -11.3041    1.0000 </r>
       <r>  -11.0047    1.0000 </r>
       <r>  -10.9802    1.0000 </r>
       <r>   -5.8936    1.0000 </r>
       <r>   -5.8859    1.0000 </r>
       <r>   -5.6530    1.0000 </r>
       <r>   -5.3600    1.0000 </r>
       <r>   -5.1720    1.0000 </r>
       <r>   -5.1038    1.0000 </r>
       <r>   -3.8915    1.0000 </r>
       <r>   -3.8364    1.0000 </r>
       <r>   -3.0477    1.0000 </r>
       <r>   -3.0174    1.0000 </r>
       <r>   -2.8220    1.0000 </r>
       <r>   -2.4323    1.0000 </r>
       <r>   -2.4243    1.0000 </r>
       <r>   -2.3118    1.0000 </r>
       <r>   -2.2278    1.0000 </r>
       <r>   -2.1136    1.0000 </r>
       <r>   -2.0757    1.0000 </r>
       <r>   -1.9778    1.0000 </r>
       <r>   -1.8803    1.0000 </r>
       <r>   -1.8734    1.0000 </r>
       <r>   -1.4904    1.0000 </r>
       <r>   -1.4824    1.0000 </r>
       <r>   -1.2532    1.0000 </r>
       <r>   -1.0589    1.0000 </r>
       <r>   -1.0158    1.0000 </r>
       <r>   -0.6917    1.0000 </r>
       <r>   -0.5643    1.0000 </r>
       <r>   -0.5076    1.0000 </r>
       <r>    1.2740    0.0000 </r>
       <r>    1.3385    0.0000 </r>
       <r>    1.6962    0.0000 </r>
       <r>    1.7961    0.0000 </r>
       <r>    2.3909    0.0000 </r>
       <r>    2.4292    0.0000 </r>
       <r>    2.4562    0.0000 </r>
       <r>    2.5391    0.0000 </r>
       <r>    2.5478    0.0000 </r>
       <r>    2.6340    0.0000 </r>
       <r>    2.9706    0.0000 </r>
       <r>    3.0109    0.0000 </r>
      </set>
      <set comment="kpoint 4">
       <r>  -13.2289    1.0000 </r>
       <r>  -13.1817    1.0000 </r>
       <r>  -12.3578    1.0000 </r>
       <r>  -12.2841    1.0000 </r>
       <r>  -11.2485    1.0000 </r>
       <r>  -11.2319    1.0000 </r>
       <r>  -10.9455    1.0000 </r>
       <r>  -10.9238    1.0000 </r>
       <r>   -5.7135    1.0000 </r>
       <r>   -5.7014    1.0000 </r>
       <r>   -5.4831    1.0000 </r>
       <r>   -5.1934    1.0000 </r>
       <r>   -5.1342    1.0000 </r>
       <r>   -5.0816    1.0000 </r>
       <r>   -3.8627    1.0000 </r>
       <r>   -3.7975    1.0000 </r>
       <r>   -3.2465    1.0000 </r>
       <r>   -3.1982    1.0000 </r>
       <r>   -2.9633    1.0000 </r>
       <r>   -2.7538    1.0000 </r>
       <r>   -2.7445    1.0000 </r>
       <r>   -2.7172    1.0000 </r>
       <r>   -2.6579    1.0000 </r>
       <r>   -2.5542    1.0000 </r>
       <r>   -2.2092    1.0000 </r>
       <r>   -2.0149    1.0000 </r>
       <r>   -1.7627    1.0000 </r>
       <r>   -1.7549    1.0000 </r>
       <r>   -1.7537    1.0000 </r>
       <r>   -1.7415    1.0000 </r>
       <r>   -1.2636    1.0000 </r>
       <r>   -1.0328    1.0000 </r>
       <r>   -1.0195    1.0000 </r>
       <r>   -0.7317    1.0000 </r>
       <r>   -0.5324    1.0000 </r>
       <r>   -0.4790    1.0000 </r>
       <r>    1.2161    0.0000 </r>
       <r>    1.2802    0.0000 </r>
       <r>    1.8303    0.0000 </r>
       <r>    1.9454    0.0000 </r>
       <r>    1.9651    0.0000 </r>
       <r>    2.0653    0.0000 </r>
       <r>    2.0867    0.0000 </r>
       <r>    2.1449    0.0000 </r>
       <r>    2.1693    0.0000 </r>
       <r>    2.2125    0.0000 </r>
       <r>    2.6380    0.0000 </r>
       <r>    2.6804    0.0000 </r>
      </set>
      <set comment="kpoint 5">
       <r>  -13.0206    1.0000 </r>
       <r>  -12.9742    1.0000 </r>
       <r>  -12.2048    1.0000 </r>
       <r>  -12.1344    1.0000 </r>
       <r>  -11.1676    1.0000 </r>
       <r>  -11.1535    1.0000 </r>
       <r>  -10.8814    1.0000 </r>
       <r>  -10.8638    1.0000 </r>
       <r>   -5.4890    1.0000 </r>
       <r>   -5.4688    1.0000 </r>
       <r>   -5.2749    1.0000 </r>
       <r>   -5.1098    1.0000 </r>
       <r>   -5.0767    1.0000 </r>
       <r>   -4.9921    1.0000 </r>
       <r>   -3.8945    1.0000 </r>
       <r>   -3.8223    1.0000 </r>
       <r>   -3.4167    1.0000 </r>
       <r>   -3.3482    1.0000 </r>
       <r>   -3.2478    1.0000 </r>
       <r>   -3.1782    1.0000 </r>
       <r>   -3.1545    1.0000 </r>
       <r>   -3.1274    1.0000 </r>
       <r>   -3.0937    1.0000 </r>
       <r>   -2.8072    1.0000 </r>
       <r>   -2.2203    1.0000 </r>
       <r>   -2.1190    1.0000 </r>
       <r>   -2.0953    1.0000 </r>
       <r>   -2.0799    1.0000 </r>
       <r>   -1.6556    1.0000 </r>
       <r>   -1.6421    1.0000 </r>
       <r>   -1.2773    1.0000 </r>
       <r>   -1.0574    1.0000 </r>
       <r>   -1.0501    1.0000 </r>
       <r>   -0.8116    1.0000 </r>
       <r>   -0.4634    1.0000 </r>
       <r>   -0.4267    1.0000 </r>
       <r>    1.1253    0.0000 </r>
       <r>    1.1738    0.0000 </r>
       <r>    1.5413    0.0000 </r>
       <r>    1.7149    0.0000 </r>
       <r>    1.8211    0.0000 </r>
       <r>    1.8525    0.0000 </r>
       <r>    1.8584    0.0000 </r>
       <r>    1.9737    0.0000 </r>
       <r>    2.0750    0.0000 </r>
       <r>    2.2080    0.0000 </r>
       <r>    2.2677    0.0000 </r>
       <r>    2.3220    0.0000 </r>
      </set>
      <set comment="kpoint 6">
       <r>  -12.7710    1.0000 </r>
       <r>  -12.7258    1.0000 </r>
       <r>  -12.0223    1.0000 </r>
       <r>  -11.9561    1.0000 </r>
       <r>  -11.0964    1.0000 </r>
       <r>  -11.0858    1.0000 </r>
       <r>  -10.8260    1.0000 </r>
       <r>  -10.8135    1.0000 </r>
       <r>   -5.2487    1.0000 </r>
       <r>   -5.2164    1.0000 </r>
       <r>   -5.1098    1.0000 </r>
       <r>   -5.0950    1.0000 </r>
       <r>   -5.0514    1.0000 </r>
       <r>   -4.7849    1.0000 </r>
       <r>   -4.1128    1.0000 </r>
       <r>   -4.0755    1.0000 </r>
       <r>   -3.5228    1.0000 </r>
       <r>   -3.5216    1.0000 </r>
       <r>   -3.5106    1.0000 </r>
       <r>   -3.4679    1.0000 </r>
       <r>   -3.4396    1.0000 </r>
       <r>   -3.4365    1.0000 </r>
       <r>   -3.3055    1.0000 </r>
       <r>   -3.0809    1.0000 </r>
       <r>   -2.5347    1.0000 </r>
       <r>   -2.4907    1.0000 </r>
       <r>   -2.2392    1.0000 </r>
       <r>   -2.1581    1.0000 </r>
       <r>   -1.6720    1.0000 </r>
       <r>   -1.6390    1.0000 </r>
       <r>   -1.2932    1.0000 </r>
       <r>   -1.0694    1.0000 </r>
       <r>   -1.0587    1.0000 </r>
       <r>   -0.9128    1.0000 </r>
       <r>   -0.3757    1.0000 </r>
       <r>   -0.3588    1.0000 </r>
       <r>    1.0280    0.0000 </r>
       <r>    1.0595    0.0000 </r>
       <r>    1.2398    0.0000 </r>
       <r>    1.4338    0.0000 </r>
       <r>    1.6705    0.0000 </r>
       <r>    1.6862    0.0000 </r>
       <r>    1.7502    0.0000 </r>
       <r>    1.8823    0.0000 </r>
       <r>    1.9417    0.0000 </r>
       <r>    2.0406    0.0000 </r>
       <r>    2.2591    0.0000 </r>
       <r>    2.3834    0.0000 </r>
      </set>
      <set comment="kpoint 7">
       <r>  -12.4887    1.0000 </r>
       <r>  -12.4455    1.0000 </r>
       <r>  -11.8173    1.0000 </r>
       <r>  -11.7564    1.0000 </r>
       <r>  -11.0574    1.0000 </r>
       <r>  -11.0499    1.0000 </r>
       <r>  -10.7963    1.0000 </r>
       <r>  -10.7881    1.0000 </r>
       <r>   -5.1255    1.0000 </r>
       <r>   -5.1184    1.0000 </r>
       <r>   -5.0981    1.0000 </r>
       <r>   -5.0565    1.0000 </r>
       <r>   -4.8657    1.0000 </r>
       <r>   -4.6461    1.0000 </r>
       <r>   -4.3315    1.0000 </r>
       <r>   -4.3128    1.0000 </r>
       <r>   -3.8593    1.0000 </r>
       <r>   -3.8206    1.0000 </r>
       <r>   -3.5548    1.0000 </r>
       <r>   -3.5466    1.0000 </r>
       <r>   -3.4846    1.0000 </r>
       <r>   -3.4778    1.0000 </r>
       <r>   -3.4641    1.0000 </r>
       <r>   -3.4156    1.0000 </r>
       <r>   -2.9158    1.0000 </r>
       <r>   -2.8334    1.0000 </r>
       <r>   -2.2491    1.0000 </r>
       <r>   -2.2117    1.0000 </r>
       <r>   -1.8647    1.0000 </r>
       <r>   -1.8256    1.0000 </r>
       <r>   -1.3729    1.0000 </r>
       <r>   -1.1161    1.0000 </r>
       <r>   -0.9568    1.0000 </r>
       <r>   -0.9240    1.0000 </r>
       <r>   -0.3193    1.0000 </r>
       <r>   -0.3121    1.0000 </r>
       <r>    0.9720    0.0000 </r>
       <r>    0.9927    0.0000 </r>
       <r>    1.0272    0.0000 </r>
       <r>    1.2233    0.0000 </r>
       <r>    1.6205    0.0000 </r>
       <r>    1.6267    0.0000 </r>
       <r>    1.6757    0.0000 </r>
       <r>    1.7609    0.0000 </r>
       <r>    1.7911    0.0000 </r>
       <r>    1.9855    0.0000 </r>
       <r>    2.3945    0.0000 </r>
       <r>    2.4655    0.0000 </r>
      </set>
      <set comment="kpoint 8">
       <r>  -12.1862    1.0000 </r>
       <r>  -12.1458    1.0000 </r>
       <r>  -11.5994    1.0000 </r>
       <r>  -11.5448    1.0000 </r>
       <r>  -11.0766    1.0000 </r>
       <r>  -11.0675    1.0000 </r>
       <r>  -10.8111    1.0000 </r>
       <r>  -10.8006    1.0000 </r>
       <r>   -5.1873    1.0000 </r>
       <r>   -5.1515    1.0000 </r>
       <r>   -5.1185    1.0000 </r>
       <r>   -5.1068    1.0000 </r>
       <r>   -4.8410    1.0000 </r>
       <r>   -4.7245    1.0000 </r>
       <r>   -4.2062    1.0000 </r>
       <r>   -4.1795    1.0000 </r>
       <r>   -4.0303    1.0000 </r>
       <r>   -3.9225    1.0000 </r>
       <r>   -3.8592    1.0000 </r>
       <r>   -3.7978    1.0000 </r>
       <r>   -3.5379    1.0000 </r>
       <r>   -3.4775    1.0000 </r>
       <r>   -3.4597    1.0000 </r>
       <r>   -3.4499    1.0000 </r>
       <r>   -3.1745    1.0000 </r>
       <r>   -3.0645    1.0000 </r>
       <r>   -2.2468    1.0000 </r>
       <r>   -2.1828    1.0000 </r>
       <r>   -2.1685    1.0000 </r>
       <r>   -2.1345    1.0000 </r>
       <r>   -1.5149    1.0000 </r>
       <r>   -1.2855    1.0000 </r>
       <r>   -0.8380    1.0000 </r>
       <r>   -0.8194    1.0000 </r>
       <r>   -0.3489    1.0000 </r>
       <r>   -0.3356    1.0000 </r>
       <r>    0.9125    0.0000 </r>
       <r>    1.0013    0.0000 </r>
       <r>    1.0271    0.0000 </r>
       <r>    1.1315    0.0000 </r>
       <r>    1.6000    0.0000 </r>
       <r>    1.6460    0.0000 </r>
       <r>    1.6577    0.0000 </r>
       <r>    1.6785    0.0000 </r>
       <r>    1.8223    0.0000 </r>
       <r>    2.0164    0.0000 </r>
       <r>    2.3230    0.0000 </r>
       <r>    2.4268    0.0000 </r>
      </set>
      <set comment="kpoint 9">
       <r>  -11.8802    1.0000 </r>
       <r>  -11.8439    1.0000 </r>
       <r>  -11.3812    1.0000 </r>
       <r>  -11.3341    1.0000 </r>
       <r>  -11.1728    1.0000 </r>
       <r>  -11.1571    1.0000 </r>
       <r>  -10.8811    1.0000 </r>
       <r>  -10.8622    1.0000 </r>
       <r>   -5.3116    1.0000 </r>
       <r>   -5.2810    1.0000 </r>
       <r>   -5.0444    1.0000 </r>
       <r>   -5.0286    1.0000 </r>
       <r>   -5.0139    1.0000 </r>
       <r>   -4.9618    1.0000 </r>
       <r>   -4.2772    1.0000 </r>
       <r>   -4.2422    1.0000 </r>
       <r>   -3.9225    1.0000 </r>
       <r>   -3.9208    1.0000 </r>
       <r>   -3.8527    1.0000 </r>
       <r>   -3.7785    1.0000 </r>
       <r>   -3.5060    1.0000 </r>
       <r>   -3.4609    1.0000 </r>
       <r>   -3.4195    1.0000 </r>
       <r>   -3.4132    1.0000 </r>
       <r>   -3.3203    1.0000 </r>
       <r>   -3.2120    1.0000 </r>
       <r>   -2.5324    1.0000 </r>
       <r>   -2.5043    1.0000 </r>
       <r>   -2.1868    1.0000 </r>
       <r>   -2.0782    1.0000 </r>
       <r>   -1.6929    1.0000 </r>
       <r>   -1.4924    1.0000 </r>
       <r>   -0.7638    1.0000 </r>
       <r>   -0.7255    1.0000 </r>
       <r>   -0.4533    1.0000 </r>
       <r>   -0.4369    1.0000 </r>
       <r>    0.9383    0.0000 </r>
       <r>    1.0940    0.0000 </r>
       <r>    1.1535    0.0000 </r>
       <r>    1.2048    0.0000 </r>
       <r>    1.5899    0.0000 </r>
       <r>    1.6302    0.0000 </r>
       <r>    1.7141    0.0000 </r>
       <r>    1.7394    0.0000 </r>
       <r>    1.8700    0.0000 </r>
       <r>    2.0220    0.0000 </r>
       <r>    2.0706    0.0000 </r>
       <r>    2.2276    0.0000 </r>
      </set>
      <set comment="kpoint 10">
       <r>  -11.5927    1.0000 </r>
       <r>  -11.5621    1.0000 </r>
       <r>  -11.3491    1.0000 </r>
       <r>  -11.3256    1.0000 </r>
       <r>  -11.1778    1.0000 </r>
       <r>  -11.1395    1.0000 </r>
       <r>  -11.0062    1.0000 </r>
       <r>  -10.9775    1.0000 </r>
       <r>   -5.3238    1.0000 </r>
       <r>   -5.2951    1.0000 </r>
       <r>   -5.2110    1.0000 </r>
       <r>   -5.1783    1.0000 </r>
       <r>   -4.8770    1.0000 </r>
       <r>   -4.8583    1.0000 </r>
       <r>   -4.6138    1.0000 </r>
       <r>   -4.5913    1.0000 </r>
       <r>   -3.8035    1.0000 </r>
       <r>   -3.7552    1.0000 </r>
       <r>   -3.6706    1.0000 </r>
       <r>   -3.6398    1.0000 </r>
       <r>   -3.4615    1.0000 </r>
       <r>   -3.4050    1.0000 </r>
       <r>   -3.3756    1.0000 </r>
       <r>   -3.3086    1.0000 </r>
       <r>   -3.2935    1.0000 </r>
       <r>   -3.2499    1.0000 </r>
       <r>   -2.9237    1.0000 </r>
       <r>   -2.8987    1.0000 </r>
       <r>   -2.0585    1.0000 </r>
       <r>   -1.9136    1.0000 </r>
       <r>   -1.8836    1.0000 </r>
       <r>   -1.7099    1.0000 </r>
       <r>   -0.6905    1.0000 </r>
       <r>   -0.6512    1.0000 </r>
       <r>   -0.5834    1.0000 </r>
       <r>   -0.5564    1.0000 </r>
       <r>    1.0713    0.0000 </r>
       <r>    1.1523    0.0000 </r>
       <r>    1.2985    0.0000 </r>
       <r>    1.3458    0.0000 </r>
       <r>    1.6191    0.0000 </r>
       <r>    1.6432    0.0000 </r>
       <r>    1.7219    0.0000 </r>
       <r>    1.8082    0.0000 </r>
       <r>    1.8713    0.0000 </r>
       <r>    1.8783    0.0000 </r>
       <r>    1.9544    0.0000 </r>
       <r>    1.9744    0.0000 </r>
      </set>
      <set comment="kpoint 11">
       <r>  -13.4807    1.0000 </r>
       <r>  -13.4330    1.0000 </r>
       <r>  -12.5434    1.0000 </r>
       <r>  -12.4661    1.0000 </r>
       <r>  -11.5746    1.0000 </r>
       <r>  -11.5472    1.0000 </r>
       <r>  -11.1834    1.0000 </r>
       <r>  -11.1481    1.0000 </r>
       <r>   -5.8421    1.0000 </r>
       <r>   -5.8349    1.0000 </r>
       <r>   -5.7518    1.0000 </r>
       <r>   -5.4576    1.0000 </r>
       <r>   -5.0285    1.0000 </r>
       <r>   -4.9436    1.0000 </r>
       <r>   -3.9934    1.0000 </r>
       <r>   -3.9133    1.0000 </r>
       <r>   -2.7353    1.0000 </r>
       <r>   -2.7027    1.0000 </r>
       <r>   -2.6849    1.0000 </r>
       <r>   -2.2587    1.0000 </r>
       <r>   -2.2361    1.0000 </r>
       <r>   -2.2288    1.0000 </r>
       <r>   -2.1371    1.0000 </r>
       <r>   -1.9553    1.0000 </r>
       <r>   -1.9535    1.0000 </r>
       <r>   -1.9485    1.0000 </r>
       <r>   -1.4045    1.0000 </r>
       <r>   -1.3578    1.0000 </r>
       <r>   -1.3513    1.0000 </r>
       <r>   -1.2999    1.0000 </r>
       <r>   -1.2421    1.0000 </r>
       <r>   -1.1095    1.0000 </r>
       <r>   -1.0303    1.0000 </r>
       <r>   -0.6838    1.0000 </r>
       <r>   -0.6381    1.0000 </r>
       <r>   -0.6067    1.0000 </r>
       <r>    1.3346    0.0000 </r>
       <r>    1.3488    0.0000 </r>
       <r>    1.4505    0.0000 </r>
       <r>    1.5642    0.0000 </r>
       <r>    2.6845    0.0000 </r>
       <r>    2.7166    0.0000 </r>
       <r>    2.8094    0.0000 </r>
       <r>    2.8432    0.0000 </r>
       <r>    2.8982    0.0000 </r>
       <r>    3.1338    0.0000 </r>
       <r>    3.1834    0.0000 </r>
       <r>    3.1931    0.0000 </r>
      </set>
      <set comment="kpoint 12">
       <r>  -13.4260    1.0000 </r>
       <r>  -13.3783    1.0000 </r>
       <r>  -12.5030    1.0000 </r>
       <r>  -12.4265    1.0000 </r>
       <r>  -11.5419    1.0000 </r>
       <r>  -11.5151    1.0000 </r>
       <r>  -11.1579    1.0000 </r>
       <r>  -11.1235    1.0000 </r>
       <r>   -5.7872    1.0000 </r>
       <r>   -5.7810    1.0000 </r>
       <r>   -5.6921    1.0000 </r>
       <r>   -5.3986    1.0000 </r>
       <r>   -5.0099    1.0000 </r>
       <r>   -4.9304    1.0000 </r>
       <r>   -3.9654    1.0000 </r>
       <r>   -3.8850    1.0000 </r>
       <r>   -2.8553    1.0000 </r>
       <r>   -2.8153    1.0000 </r>
       <r>   -2.7878    1.0000 </r>
       <r>   -2.3550    1.0000 </r>
       <r>   -2.3473    1.0000 </r>
       <r>   -2.2459    1.0000 </r>
       <r>   -2.1862    1.0000 </r>
       <r>   -1.9173    1.0000 </r>
       <r>   -1.9101    1.0000 </r>
       <r>   -1.9033    1.0000 </r>
       <r>   -1.6672    1.0000 </r>
       <r>   -1.6051    1.0000 </r>
       <r>   -1.4400    1.0000 </r>
       <r>   -1.4330    1.0000 </r>
       <r>   -1.2460    1.0000 </r>
       <r>   -1.0714    1.0000 </r>
       <r>   -1.0188    1.0000 </r>
       <r>   -0.6863    1.0000 </r>
       <r>   -0.6304    1.0000 </r>
       <r>   -0.5925    1.0000 </r>
       <r>    1.2595    0.0000 </r>
       <r>    1.3531    0.0000 </r>
       <r>    1.5336    0.0000 </r>
       <r>    1.5866    0.0000 </r>
       <r>    2.5019    0.0000 </r>
       <r>    2.5306    0.0000 </r>
       <r>    2.5954    0.0000 </r>
       <r>    2.6739    0.0000 </r>
       <r>    2.7401    0.0000 </r>
       <r>    2.9724    0.0000 </r>
       <r>    3.0460    0.0000 </r>
       <r>    3.0841    0.0000 </r>
      </set>
      <set comment="kpoint 13">
       <r>  -13.3178    1.0000 </r>
       <r>  -13.2704    1.0000 </r>
       <r>  -12.4232    1.0000 </r>
       <r>  -12.3483    1.0000 </r>
       <r>  -11.4798    1.0000 </r>
       <r>  -11.4541    1.0000 </r>
       <r>  -11.1097    1.0000 </r>
       <r>  -11.0771    1.0000 </r>
       <r>   -5.6839    1.0000 </r>
       <r>   -5.6764    1.0000 </r>
       <r>   -5.5763    1.0000 </r>
       <r>   -5.2847    1.0000 </r>
       <r>   -4.9802    1.0000 </r>
       <r>   -4.9118    1.0000 </r>
       <r>   -3.9143    1.0000 </r>
       <r>   -3.8328    1.0000 </r>
       <r>   -3.0654    1.0000 </r>
       <r>   -3.0090    1.0000 </r>
       <r>   -2.8928    1.0000 </r>
       <r>   -2.5857    1.0000 </r>
       <r>   -2.5764    1.0000 </r>
       <r>   -2.4411    1.0000 </r>
       <r>   -2.1726    1.0000 </r>
       <r>   -2.1079    1.0000 </r>
       <r>   -2.0815    1.0000 </r>
       <r>   -1.8765    1.0000 </r>
       <r>   -1.8180    1.0000 </r>
       <r>   -1.8106    1.0000 </r>
       <r>   -1.5506    1.0000 </r>
       <r>   -1.5418    1.0000 </r>
       <r>   -1.3047    1.0000 </r>
       <r>   -1.0745    1.0000 </r>
       <r>   -1.0265    1.0000 </r>
       <r>   -0.7190    1.0000 </r>
       <r>   -0.6300    1.0000 </r>
       <r>   -0.5775    1.0000 </r>
       <r>    1.2195    0.0000 </r>
       <r>    1.3686    0.0000 </r>
       <r>    1.6039    0.0000 </r>
       <r>    1.6461    0.0000 </r>
       <r>    2.1533    0.0000 </r>
       <r>    2.2520    0.0000 </r>
       <r>    2.2598    0.0000 </r>
       <r>    2.3615    0.0000 </r>
       <r>    2.4296    0.0000 </r>
       <r>    2.5675    0.0000 </r>
       <r>    2.8517    0.0000 </r>
       <r>    2.9019    0.0000 </r>
      </set>
      <set comment="kpoint 14">
       <r>  -13.1587    1.0000 </r>
       <r>  -13.1118    1.0000 </r>
       <r>  -12.3062    1.0000 </r>
       <r>  -12.2337    1.0000 </r>
       <r>  -11.3951    1.0000 </r>
       <r>  -11.3712    1.0000 </r>
       <r>  -11.0447    1.0000 </r>
       <r>  -11.0148    1.0000 </r>
       <r>   -5.5454    1.0000 </r>
       <r>   -5.5314    1.0000 </r>
       <r>   -5.4124    1.0000 </r>
       <r>   -5.1248    1.0000 </r>
       <r>   -4.9550    1.0000 </r>
       <r>   -4.9044    1.0000 </r>
       <r>   -3.8508    1.0000 </r>
       <r>   -3.7656    1.0000 </r>
       <r>   -3.2735    1.0000 </r>
       <r>   -3.2047    1.0000 </r>
       <r>   -3.0484    1.0000 </r>
       <r>   -2.9053    1.0000 </r>
       <r>   -2.8925    1.0000 </r>
       <r>   -2.7069    1.0000 </r>
       <r>   -2.6908    1.0000 </r>
       <r>   -2.6522    1.0000 </r>
       <r>   -2.0912    1.0000 </r>
       <r>   -1.8980    1.0000 </r>
       <r>   -1.7210    1.0000 </r>
       <r>   -1.7106    1.0000 </r>
       <r>   -1.6877    1.0000 </r>
       <r>   -1.6789    1.0000 </r>
       <r>   -1.4033    1.0000 </r>
       <r>   -1.1254    1.0000 </r>
       <r>   -1.0677    1.0000 </r>
       <r>   -0.8080    1.0000 </r>
       <r>   -0.6080    1.0000 </r>
       <r>   -0.5608    1.0000 </r>
       <r>    1.1972    0.0000 </r>
       <r>    1.3459    0.0000 </r>
       <r>    1.6799    0.0000 </r>
       <r>    1.7405    0.0000 </r>
       <r>    1.7776    0.0000 </r>
       <r>    1.9102    0.0000 </r>
       <r>    2.0211    0.0000 </r>
       <r>    2.0916    0.0000 </r>
       <r>    2.1746    0.0000 </r>
       <r>    2.1841    0.0000 </r>
       <r>    2.5934    0.0000 </r>
       <r>    2.6463    0.0000 </r>
      </set>
      <set comment="kpoint 15">
       <r>  -12.9531    1.0000 </r>
       <r>  -12.9071    1.0000 </r>
       <r>  -12.1556    1.0000 </r>
       <r>  -12.0863    1.0000 </r>
       <r>  -11.2989    1.0000 </r>
       <r>  -11.2776    1.0000 </r>
       <r>  -10.9722    1.0000 </r>
       <r>  -10.9461    1.0000 </r>
       <r>   -5.3969    1.0000 </r>
       <r>   -5.3728    1.0000 </r>
       <r>   -5.2146    1.0000 </r>
       <r>   -4.9566    1.0000 </r>
       <r>   -4.9359    1.0000 </r>
       <r>   -4.9286    1.0000 </r>
       <r>   -3.8005    1.0000 </r>
       <r>   -3.7049    1.0000 </r>
       <r>   -3.4335    1.0000 </r>
       <r>   -3.3536    1.0000 </r>
       <r>   -3.2922    1.0000 </r>
       <r>   -3.2803    1.0000 </r>
       <r>   -3.2307    1.0000 </r>
       <r>   -3.2227    1.0000 </r>
       <r>   -3.1710    1.0000 </r>
       <r>   -2.9748    1.0000 </r>
       <r>   -2.1093    1.0000 </r>
       <r>   -2.0094    1.0000 </r>
       <r>   -1.9712    1.0000 </r>
       <r>   -1.9606    1.0000 </r>
       <r>   -1.5572    1.0000 </r>
       <r>   -1.5418    1.0000 </r>
       <r>   -1.4760    1.0000 </r>
       <r>   -1.1940    1.0000 </r>
       <r>   -1.1332    1.0000 </r>
       <r>   -0.9393    1.0000 </r>
       <r>   -0.5550    1.0000 </r>
       <r>   -0.5245    1.0000 </r>
       <r>    1.1605    0.0000 </r>
       <r>    1.2741    0.0000 </r>
       <r>    1.4072    0.0000 </r>
       <r>    1.6212    0.0000 </r>
       <r>    1.7628    0.0000 </r>
       <r>    1.8424    0.0000 </r>
       <r>    1.8992    0.0000 </r>
       <r>    1.9204    0.0000 </r>
       <r>    2.0098    0.0000 </r>
       <r>    2.1129    0.0000 </r>
       <r>    2.2828    0.0000 </r>
       <r>    2.3395    0.0000 </r>
      </set>
      <set comment="kpoint 16">
       <r>  -12.7073    1.0000 </r>
       <r>  -12.6626    1.0000 </r>
       <r>  -11.9764    1.0000 </r>
       <r>  -11.9114    1.0000 </r>
       <r>  -11.2076    1.0000 </r>
       <r>  -11.1898    1.0000 </r>
       <r>  -10.9052    1.0000 </r>
       <r>  -10.8839    1.0000 </r>
       <r>   -5.2924    1.0000 </r>
       <r>   -5.2597    1.0000 </r>
       <r>   -5.0115    1.0000 </r>
       <r>   -5.0003    1.0000 </r>
       <r>   -4.9903    1.0000 </r>
       <r>   -4.7544    1.0000 </r>
       <r>   -3.8618    1.0000 </r>
       <r>   -3.7785    1.0000 </r>
       <r>   -3.6722    1.0000 </r>
       <r>   -3.6630    1.0000 </r>
       <r>   -3.5183    1.0000 </r>
       <r>   -3.4816    1.0000 </r>
       <r>   -3.4741    1.0000 </r>
       <r>   -3.4559    1.0000 </r>
       <r>   -3.4186    1.0000 </r>
       <r>   -3.2908    1.0000 </r>
       <r>   -2.3679    1.0000 </r>
       <r>   -2.2943    1.0000 </r>
       <r>   -2.1560    1.0000 </r>
       <r>   -2.0443    1.0000 </r>
       <r>   -1.5842    1.0000 </r>
       <r>   -1.5075    1.0000 </r>
       <r>   -1.4822    1.0000 </r>
       <r>   -1.2364    1.0000 </r>
       <r>   -1.1313    1.0000 </r>
       <r>   -1.0331    1.0000 </r>
       <r>   -0.4805    1.0000 </r>
       <r>   -0.4684    1.0000 </r>
       <r>    1.1097    0.0000 </r>
       <r>    1.1853    0.0000 </r>
       <r>    1.1866    0.0000 </r>
       <r>    1.4198    0.0000 </r>
       <r>    1.7113    0.0000 </r>
       <r>    1.7401    0.0000 </r>
       <r>    1.8758    0.0000 </r>
       <r>    1.9701    0.0000 </r>
       <r>    2.0069    0.0000 </r>
       <r>    2.0171    0.0000 </r>
       <r>    2.1621    0.0000 </r>
       <r>    2.1654    0.0000 </r>
      </set>
      <set comment="kpoint 17">
       <r>  -12.4305    1.0000 </r>
       <r>  -12.3879    1.0000 </r>
       <r>  -11.7762    1.0000 </r>
       <r>  -11.7165    1.0000 </r>
       <r>  -11.1433    1.0000 </r>
       <r>  -11.1295    1.0000 </r>
       <r>  -10.8603    1.0000 </r>
       <r>  -10.8436    1.0000 </r>
       <r>   -5.3103    1.0000 </r>
       <r>   -5.2803    1.0000 </r>
       <r>   -5.0753    1.0000 </r>
       <r>   -5.0579    1.0000 </r>
       <r>   -4.8735    1.0000 </r>
       <r>   -4.6823    1.0000 </r>
       <r>   -3.9940    1.0000 </r>
       <r>   -3.9783    1.0000 </r>
       <r>   -3.9448    1.0000 </r>
       <r>   -3.9195    1.0000 </r>
       <r>   -3.7638    1.0000 </r>
       <r>   -3.6412    1.0000 </r>
       <r>   -3.5050    1.0000 </r>
       <r>   -3.4549    1.0000 </r>
       <r>   -3.4177    1.0000 </r>
       <r>   -3.4115    1.0000 </r>
       <r>   -2.7027    1.0000 </r>
       <r>   -2.6048    1.0000 </r>
       <r>   -2.2101    1.0000 </r>
       <r>   -2.1075    1.0000 </r>
       <r>   -1.7286    1.0000 </r>
       <r>   -1.6660    1.0000 </r>
       <r>   -1.5747    1.0000 </r>
       <r>   -1.3136    1.0000 </r>
       <r>   -0.9941    1.0000 </r>
       <r>   -0.9542    1.0000 </r>
       <r>   -0.4270    1.0000 </r>
       <r>   -0.4086    1.0000 </r>
       <r>    1.0556    0.0000 </r>
       <r>    1.0746    0.0000 </r>
       <r>    1.1221    0.0000 </r>
       <r>    1.2766    0.0000 </r>
       <r>    1.7068    0.0000 </r>
       <r>    1.7171    0.0000 </r>
       <r>    1.7290    0.0000 </r>
       <r>    1.7884    0.0000 </r>
       <r>    1.9431    0.0000 </r>
       <r>    2.1342    0.0000 </r>
       <r>    2.2283    0.0000 </r>
       <r>    2.2845    0.0000 </r>
      </set>
      <set comment="kpoint 18">
       <r>  -12.1358    1.0000 </r>
       <r>  -12.0961    1.0000 </r>
       <r>  -11.5651    1.0000 </r>
       <r>  -11.5118    1.0000 </r>
       <r>  -11.1323    1.0000 </r>
       <r>  -11.1203    1.0000 </r>
       <r>  -10.8552    1.0000 </r>
       <r>  -10.8402    1.0000 </r>
       <r>   -5.4361    1.0000 </r>
       <r>   -5.4139    1.0000 </r>
       <r>   -5.1249    1.0000 </r>
       <r>   -5.0961    1.0000 </r>
       <r>   -4.9418    1.0000 </r>
       <r>   -4.8599    1.0000 </r>
       <r>   -4.1624    1.0000 </r>
       <r>   -4.0715    1.0000 </r>
       <r>   -4.0196    1.0000 </r>
[...]
       <r>  -11.0868    1.0000 </r>
       <r>  -11.0577    1.0000 </r>
       <r>   -5.9775    1.0000 </r>
       <r>   -5.9712    1.0000 </r>
       <r>   -5.8889    1.0000 </r>
       <r>   -5.8817    1.0000 </r>
       <r>   -5.1615    1.0000 </r>
       <r>   -5.0812    1.0000 </r>
       <r>   -5.0650    1.0000 </r>
       <r>   -4.9800    1.0000 </r>
       <r>   -3.9877    1.0000 </r>
       <r>   -3.9435    1.0000 </r>
       <r>   -3.9127    1.0000 </r>
       <r>   -3.8859    1.0000 </r>
       <r>   -2.8244    1.0000 </r>
       <r>   -2.8022    1.0000 </r>
       <r>   -2.6948    1.0000 </r>
       <r>   -2.6801    1.0000 </r>
       <r>   -2.2743    1.0000 </r>
       <r>   -2.2498    1.0000 </r>
       <r>   -1.9706    1.0000 </r>
       <r>   -1.9657    1.0000 </r>
       <r>   -1.5257    1.0000 </r>
       <r>   -1.4693    1.0000 </r>
       <r>   -1.3657    1.0000 </r>
       <r>   -1.2540    1.0000 </r>
       <r>   -0.6284    1.0000 </r>
       <r>   -0.5929    1.0000 </r>
       <r>   -0.5756    1.0000 </r>
       <r>   -0.5505    1.0000 </r>
       <r>    1.2948    0.0000 </r>
       <r>    1.3343    0.0000 </r>
       <r>    1.3361    0.0000 </r>
       <r>    1.3497    0.0000 </r>
       <r>    1.4506    0.0000 </r>
       <r>    1.5730    0.0000 </r>
       <r>    1.5753    0.0000 </r>
       <r>    1.6304    0.0000 </r>
       <r>    2.8331    0.0000 </r>
       <r>    2.9141    0.0000 </r>
       <r>    3.1333    0.0000 </r>
       <r>    3.2109    0.0000 </r>
      </set>
      <set comment="kpoint 50">
       <r>  -11.4223    1.0000 </r>
       <r>  -11.4016    1.0000 </r>
       <r>  -11.3812    1.0000 </r>
       <r>  -11.3626    1.0000 </r>
       <r>  -11.0837    1.0000 </r>
       <r>  -11.0558    1.0000 </r>
       <r>  -11.0557    1.0000 </r>
       <r>  -11.0300    1.0000 </r>
       <r>   -6.1018    1.0000 </r>
       <r>   -6.0958    1.0000 </r>
       <r>   -6.0705    1.0000 </r>
       <r>   -6.0641    1.0000 </r>
       <r>   -5.2484    1.0000 </r>
       <r>   -5.2150    1.0000 </r>
       <r>   -5.1660    1.0000 </r>
       <r>   -5.1312    1.0000 </r>
       <r>   -3.9519    1.0000 </r>
       <r>   -3.9371    1.0000 </r>
       <r>   -3.9034    1.0000 </r>
       <r>   -3.8967    1.0000 </r>
       <r>   -2.7761    1.0000 </r>
       <r>   -2.7628    1.0000 </r>
       <r>   -2.7364    1.0000 </r>
       <r>   -2.7222    1.0000 </r>
       <r>   -2.2935    1.0000 </r>
       <r>   -2.2879    1.0000 </r>
       <r>   -1.9975    1.0000 </r>
       <r>   -1.9940    1.0000 </r>
       <r>   -1.3478    1.0000 </r>
       <r>   -1.2971    1.0000 </r>
       <r>   -1.2714    1.0000 </r>
       <r>   -1.1907    1.0000 </r>
       <r>   -0.5717    1.0000 </r>
       <r>   -0.5446    1.0000 </r>
       <r>   -0.5333    1.0000 </r>
       <r>   -0.5283    1.0000 </r>
       <r>    1.2927    0.0000 </r>
       <r>    1.2983    0.0000 </r>
       <r>    1.3088    0.0000 </r>
       <r>    1.3111    0.0000 </r>
       <r>    1.5619    0.0000 </r>
       <r>    1.6220    0.0000 </r>
       <r>    1.6244    0.0000 </r>
       <r>    1.6348    0.0000 </r>
       <r>    2.9191    0.0000 </r>
       <r>    2.9569    0.0000 </r>
       <r>    3.2759    0.0000 </r>
       <r>    3.2954    0.0000 </r>
      </set>
     </set>
    </set>
   </array>
  </eigenvalues>
  <separator name="orbital magnetization" >
   <v name="MAGDIPOLOUT">      0.00000000      0.00000000      0.00000000</v>
  </separator>
  <dos>
   <i name="efermi">     -0.06137732 </i>
   <total>
    <array>
     <dimension dim="1">gridpoints</dimension>
     <dimension dim="2">spin</dimension>
     <field>energy</field>
     <field>total</field>
     <field>integrated</field>
     <set>
      <set comment="spin 1">
       <r>   -14.3968     0.0000     0.0000 </r>
       <r>   -14.3351     0.0000     0.0000 </r>
       <r>   -14.2733     0.0000     0.0000 </r>
       <r>   -14.2115     0.0000     0.0000 </r>
       <r>   -14.1497     0.0000     0.0000 </r>
       <r>   -14.0879     0.0000     0.0000 </r>
       <r>   -14.0261     0.0000     0.0000 </r>
       <r>   -13.9644     0.0000     0.0000 </r>
       <r>   -13.9026     0.0000     0.0000 </r>
       <r>   -13.8408     0.0000     0.0000 </r>
       <r>   -13.7790     0.0000     0.0000 </r>
       <r>   -13.7172     0.0000     0.0000 </r>
       <r>   -13.6555     0.0014     0.0001 </r>
       <r>   -13.5937     0.0921     0.0058 </r>
       <r>   -13.5319     0.7088     0.0496 </r>
       <r>   -13.4701     1.6693     0.1527 </r>
       <r>   -13.4083     1.9713     0.2745 </r>
       <r>   -13.3465     1.9165     0.3929 </r>
       <r>   -13.2848     2.1750     0.5273 </r>
       <r>   -13.2230     2.0049     0.6511 </r>
       <r>   -13.1612     1.9120     0.7693 </r>
       <r>   -13.0994     2.2128     0.9060 </r>
       <r>   -13.0376     2.0258     1.0311 </r>
       <r>   -12.9758     2.3841     1.1784 </r>
       <r>   -12.9141     2.1590     1.3118 </r>
       <r>   -12.8523     1.4440     1.4010 </r>
       <r>   -12.7905     2.6270     1.5633 </r>
       <r>   -12.7287     2.8733     1.7409 </r>
       <r>   -12.6669     2.0989     1.8705 </r>
       <r>   -12.6052     2.0470     1.9970 </r>
       <r>   -12.5434     3.5216     2.2146 </r>
       <r>   -12.4816     4.9314     2.5192 </r>
       <r>   -12.4198     5.4510     2.8560 </r>
       <r>   -12.3580     5.7767     3.2129 </r>
       <r>   -12.2962     4.9309     3.5176 </r>
       <r>   -12.2345     4.3516     3.7864 </r>
       <r>   -12.1727     5.6461     4.1352 </r>
       <r>   -12.1109     7.1112     4.5746 </r>
       <r>   -12.0491     6.0950     4.9512 </r>
       <r>   -11.9873     5.2571     5.2760 </r>
       <r>   -11.9255     5.4074     5.6100 </r>
       <r>   -11.8638     6.4699     6.0098 </r>
       <r>   -11.8020     7.3650     6.4648 </r>
       <r>   -11.7402     7.6436     6.9370 </r>
       <r>   -11.6784     6.8601     7.3609 </r>
       <r>   -11.6166     6.0529     7.7348 </r>
       <r>   -11.5548     8.9302     8.2866 </r>
       <r>   -11.4931    10.9283     8.9617 </r>
       <r>   -11.4313     8.4935     9.4865 </r>
       <r>   -11.3695    11.7319    10.2113 </r>
       <r>   -11.3077    13.8090    11.0645 </r>
       <r>   -11.2459    10.6254    11.7209 </r>
       <r>   -11.1842     9.9740    12.3371 </r>
       <r>   -11.1224    12.3699    13.1014 </r>
       <r>   -11.0606    12.4815    13.8725 </r>
       <r>   -10.9988    11.6900    14.5948 </r>
       <r>   -10.9370     8.2940    15.1072 </r>
       <r>   -10.8752     6.2937    15.4960 </r>
       <r>   -10.8135     5.3155    15.8244 </r>
       <r>   -10.7517     2.5450    15.9817 </r>
       <r>   -10.6899     0.2932    15.9998 </r>
       <r>   -10.6281     0.0036    16.0000 </r>
       <r>   -10.5663     0.0000    16.0000 </r>
       <r>   -10.5045     0.0000    16.0000 </r>
       <r>   -10.4428     0.0000    16.0000 </r>
       <r>   -10.3810     0.0000    16.0000 </r>
       <r>   -10.3192     0.0000    16.0000 </r>
       <r>   -10.2574     0.0000    16.0000 </r>
       <r>   -10.1956     0.0000    16.0000 </r>
       <r>   -10.1339     0.0000    16.0000 </r>
       <r>   -10.0721     0.0000    16.0000 </r>
       <r>   -10.0103     0.0000    16.0000 </r>
       <r>    -9.9485     0.0000    16.0000 </r>
       <r>    -9.8867     0.0000    16.0000 </r>
       <r>    -9.8249     0.0000    16.0000 </r>
       <r>    -9.7632     0.0000    16.0000 </r>
       <r>    -9.7014     0.0000    16.0000 </r>
       <r>    -9.6396     0.0000    16.0000 </r>
       <r>    -9.5778     0.0000    16.0000 </r>
       <r>    -9.5160     0.0000    16.0000 </r>
       <r>    -9.4542     0.0000    16.0000 </r>
       <r>    -9.3925     0.0000    16.0000 </r>
       <r>    -9.3307     0.0000    16.0000 </r>
       <r>    -9.2689     0.0000    16.0000 </r>
       <r>    -9.2071     0.0000    16.0000 </r>
       <r>    -9.1453     0.0000    16.0000 </r>
       <r>    -9.0835     0.0000    16.0000 </r>
       <r>    -9.0218     0.0000    16.0000 </r>
       <r>    -8.9600     0.0000    16.0000 </r>
       <r>    -8.8982     0.0000    16.0000 </r>
       <r>    -8.8364     0.0000    16.0000 </r>
       <r>    -8.7746     0.0000    16.0000 </r>
       <r>    -8.7129     0.0000    16.0000 </r>
       <r>    -8.6511     0.0000    16.0000 </r>
       <r>    -8.5893     0.0000    16.0000 </r>
       <r>    -8.5275     0.0000    16.0000 </r>
       <r>    -8.4657     0.0000    16.0000 </r>
       <r>    -8.4039     0.0000    16.0000 </r>
       <r>    -8.3422     0.0000    16.0000 </r>
       <r>    -8.2804     0.0000    16.0000 </r>
       <r>    -8.2186     0.0000    16.0000 </r>
       <r>    -8.1568     0.0000    16.0000 </r>
       <r>    -8.0950     0.0000    16.0000 </r>
       <r>    -8.0332     0.0000    16.0000 </r>
       <r>    -7.9715     0.0000    16.0000 </r>
       <r>    -7.9097     0.0000    16.0000 </r>
       <r>    -7.8479     0.0000    16.0000 </r>
       <r>    -7.7861     0.0000    16.0000 </r>
       <r>    -7.7243     0.0000    16.0000 </r>
       <r>    -7.6626     0.0000    16.0000 </r>
       <r>    -7.6008     0.0000    16.0000 </r>
       <r>    -7.5390     0.0000    16.0000 </r>
       <r>    -7.4772     0.0000    16.0000 </r>
       <r>    -7.4154     0.0000    16.0000 </r>
       <r>    -7.3536     0.0000    16.0000 </r>
       <r>    -7.2919     0.0000    16.0000 </r>
       <r>    -7.2301     0.0000    16.0000 </r>
       <r>    -7.1683     0.0000    16.0000 </r>
       <r>    -7.1065     0.0000    16.0000 </r>
       <r>    -7.0447     0.0000    16.0000 </r>
       <r>    -6.9829     0.0000    16.0000 </r>
       <r>    -6.9212     0.0000    16.0000 </r>
       <r>    -6.8594     0.0000    16.0000 </r>
       <r>    -6.7976     0.0000    16.0000 </r>
       <r>    -6.7358     0.0000    16.0000 </r>
       <r>    -6.6740     0.0000    16.0000 </r>
       <r>    -6.6123     0.0000    16.0000 </r>
       <r>    -6.5505     0.0000    16.0000 </r>
       <r>    -6.4887     0.0000    16.0000 </r>
       <r>    -6.4269     0.0000    16.0000 </r>
       <r>    -6.3651     0.0000    16.0000 </r>
       <r>    -6.3033     0.0000    16.0000 </r>
       <r>    -6.2416     0.0000    16.0000 </r>
       <r>    -6.1798     0.0185    16.0011 </r>
       <r>    -6.1180     0.6421    16.0408 </r>
       <r>    -6.0562     2.5113    16.1960 </r>
       <r>    -5.9944     2.8423    16.3716 </r>
       <r>    -5.9326     2.9716    16.5552 </r>
       <r>    -5.8709     3.3251    16.7606 </r>
       <r>    -5.8091     3.3393    16.9669 </r>
       <r>    -5.7473     4.6648    17.2551 </r>
       <r>    -5.6855     5.3596    17.5862 </r>
       <r>    -5.6237     4.3910    17.8575 </r>
       <r>    -5.5619     3.4438    18.0703 </r>
       <r>    -5.5002     5.0042    18.3795 </r>
       <r>    -5.4384     6.6450    18.7900 </r>
       <r>    -5.3766     8.6799    19.3263 </r>
       <r>    -5.3148     7.1910    19.7705 </r>
       <r>    -5.2530     9.1153    20.3337 </r>
       <r>    -5.1913    11.0090    21.0139 </r>
       <r>    -5.1295    13.3307    21.8375 </r>
       <r>    -5.0677    17.0392    22.8902 </r>
       <r>    -5.0059    14.1643    23.7653 </r>
       <r>    -4.9441    14.5130    24.6620 </r>
       <r>    -4.8823    12.9746    25.4636 </r>
       <r>    -4.8206     9.8079    26.0695 </r>
       <r>    -4.7588     6.8125    26.4904 </r>
       <r>    -4.6970     6.4968    26.8918 </r>
       <r>    -4.6352     7.6398    27.3638 </r>
       <r>    -4.5734     5.7665    27.7201 </r>
       <r>    -4.5116     3.0991    27.9115 </r>
       <r>    -4.4499     1.3512    27.9950 </r>
       <r>    -4.3881     1.5508    28.0908 </r>
       <r>    -4.3263     2.6564    28.2550 </r>
       <r>    -4.2645     3.5698    28.4755 </r>
       <r>    -4.2027     3.6807    28.7029 </r>
       <r>    -4.1410     5.0371    29.0141 </r>
       <r>    -4.0792     6.9844    29.4456 </r>
       <r>    -4.0174     9.5932    30.0383 </r>
       <r>    -3.9556    16.1002    31.0330 </r>
       <r>    -3.8938    23.2517    32.4696 </r>
       <r>    -3.8320    21.5957    33.8038 </r>
       <r>    -3.7703    14.5487    34.7027 </r>
       <r>    -3.7085    10.0482    35.3235 </r>
       <r>    -3.6467     5.7153    35.6766 </r>
       <r>    -3.5849     4.9299    35.9811 </r>
       <r>    -3.5231     6.6482    36.3919 </r>
       <r>    -3.4613    11.6483    37.1116 </r>
       <r>    -3.3996    12.5648    37.8878 </r>
       <r>    -3.3378     9.6702    38.4853 </r>
       <r>    -3.2760    10.4450    39.1306 </r>
       <r>    -3.2142    10.8548    39.8012 </r>
       <r>    -3.1524    11.1011    40.4871 </r>
       <r>    -3.0906    10.8253    41.1559 </r>
       <r>    -3.0289    10.8663    41.8272 </r>
       <r>    -2.9671     8.5735    42.3569 </r>
       <r>    -2.9053     8.1501    42.8605 </r>
       <r>    -2.8435    10.9379    43.5362 </r>
       <r>    -2.7817    11.2701    44.2325 </r>
       <r>    -2.7200    11.3115    44.9314 </r>
       <r>    -2.6582    11.8693    45.6647 </r>
       <r>    -2.5964     8.9159    46.2155 </r>
       <r>    -2.5346     7.4892    46.6782 </r>
       <r>    -2.4728     6.4943    47.0795 </r>
       <r>    -2.4110     6.3850    47.4740 </r>
       <r>    -2.3493     5.6845    47.8252 </r>
       <r>    -2.2875     6.6148    48.2338 </r>
       <r>    -2.2257    14.0848    49.1040 </r>
       <r>    -2.1639    16.2551    50.1083 </r>
       <r>    -2.1021    12.6362    50.8890 </r>
       <r>    -2.0403    13.3327    51.7127 </r>
       <r>    -1.9786    16.5161    52.7331 </r>
       <r>    -1.9168    16.6895    53.7643 </r>
       <r>    -1.8550    14.4116    54.6546 </r>
       <r>    -1.7932    12.8868    55.4508 </r>
       <r>    -1.7314    13.2345    56.2685 </r>
       <r>    -1.6697    17.3705    57.3417 </r>
       <r>    -1.6079    14.0839    58.2118 </r>
       <r>    -1.5461    12.6424    58.9929 </r>
       <r>    -1.4843    14.2275    59.8719 </r>
       <r>    -1.4225    12.5151    60.6451 </r>
       <r>    -1.3607    10.5698    61.2981 </r>
       <r>    -1.2990    11.1725    61.9884 </r>
       <r>    -1.2372    12.3146    62.7492 </r>
       <r>    -1.1754     8.7150    63.2877 </r>
       <r>    -1.1136     7.9161    63.7767 </r>
       <r>    -1.0518    13.5777    64.6156 </r>
       <r>    -0.9900    14.4002    65.5053 </r>
       <r>    -0.9283     8.9587    66.0588 </r>
       <r>    -0.8665     7.3142    66.5107 </r>
       <r>    -0.8047     9.0837    67.0719 </r>
       <r>    -0.7429    11.0443    67.7542 </r>
       <r>    -0.6811    13.4897    68.5877 </r>
       <r>    -0.6194    13.3352    69.4115 </r>
       <r>    -0.5576    14.6594    70.3172 </r>
       <r>    -0.4958    12.8945    71.1139 </r>
       <r>    -0.4340     7.0247    71.5479 </r>
       <r>    -0.3722     3.9151    71.7898 </r>
       <r>    -0.3104     2.5030    71.9444 </r>
       <r>    -0.2487     0.8547    71.9972 </r>
       <r>    -0.1869     0.0448    72.0000 </r>
       <r>    -0.1251     0.0002    72.0000 </r>
       <r>    -0.0633     0.0000    72.0000 </r>
       <r>    -0.0015     0.0000    72.0000 </r>
       <r>     0.0603     0.0000    72.0000 </r>
       <r>     0.1220     0.0000    72.0000 </r>
       <r>     0.1838     0.0000    72.0000 </r>
       <r>     0.2456     0.0000    72.0000 </r>
       <r>     0.3074     0.0000    72.0000 </r>
       <r>     0.3692     0.0000    72.0000 </r>
       <r>     0.4310     0.0000    72.0000 </r>
       <r>     0.4927     0.0000    72.0000 </r>
       <r>     0.5545     0.0000    72.0000 </r>
       <r>     0.6163     0.0000    72.0000 </r>
       <r>     0.6781     0.0000    72.0000 </r>
       <r>     0.7399     0.0000    72.0000 </r>
       <r>     0.8016     0.0017    72.0001 </r>
       <r>     0.8634     0.1884    72.0117 </r>
       <r>     0.9252     1.9260    72.1307 </r>
       <r>     0.9870     4.4987    72.4087 </r>
       <r>     1.0488     6.9033    72.8352 </r>
       <r>     1.1106    10.4496    73.4808 </r>
       <r>     1.1723    14.1582    74.3555 </r>
       <r>     1.2341    14.3873    75.2444 </r>
       <r>     1.2959    18.1331    76.3647 </r>
       <r>     1.3577    20.5412    77.6338 </r>
       <r>     1.4195    12.0493    78.3782 </r>
       <r>     1.4813     6.7060    78.7925 </r>
       <r>     1.5430    10.0970    79.4164 </r>
       <r>     1.6048    20.2851    80.6696 </r>
       <r>     1.6666    25.3278    82.2344 </r>
       <r>     1.7284    18.6798    83.3885 </r>
       <r>     1.7902    14.9223    84.3104 </r>
       <r>     1.8519    15.2452    85.2523 </r>
       <r>     1.9137    14.7814    86.1656 </r>
       <r>     1.9755    14.9935    87.0919 </r>
       <r>     2.0373    14.8431    88.0089 </r>
       <r>     2.0991    12.4282    88.7768 </r>
       <r>     2.1609    12.5490    89.5521 </r>
       <r>     2.2226    11.8838    90.2863 </r>
       <r>     2.2844    10.9350    90.9619 </r>
       <r>     2.3462     8.1557    91.4658 </r>
       <r>     2.4080     7.6139    91.9362 </r>
       <r>     2.4698     7.0245    92.3702 </r>
       <r>     2.5316     6.0730    92.7454 </r>
       <r>     2.5933     5.7724    93.1020 </r>
       <r>     2.6551     4.9174    93.4058 </r>
       <r>     2.7169     5.7182    93.7591 </r>
       <r>     2.7787     5.0118    94.0688 </r>
       <r>     2.8405     3.3972    94.2786 </r>
       <r>     2.9023     4.2515    94.5413 </r>
       <r>     2.9640     5.4650    94.8789 </r>
       <r>     3.0258     4.6714    95.1676 </r>
       <r>     3.0876     3.4495    95.3807 </r>
       <r>     3.1494     3.5152    95.5979 </r>
       <r>     3.2112     2.5129    95.7531 </r>
       <r>     3.2729     1.8796    95.8692 </r>
       <r>     3.3347     1.8277    95.9822 </r>
       <r>     3.3965     0.2852    95.9998 </r>
       <r>     3.4583     0.0036    96.0000 </r>
       <r>     3.5201     0.0000    96.0000 </r>
       <r>     3.5819     0.0000    96.0000 </r>
       <r>     3.6436     0.0000    96.0000 </r>
       <r>     3.7054     0.0000    96.0000 </r>
       <r>     3.7672     0.0000    96.0000 </r>
       <r>     3.8290     0.0000    96.0000 </r>
       <r>     3.8908     0.0000    96.0000 </r>
       <r>     3.9526     0.0000    96.0000 </r>
       <r>     4.0143     0.0000    96.0000 </r>
       <r>     4.0761     0.0000    96.0000 </r>
       <r>     4.1379     0.0000    96.0000 </r>
      </set>
     </set>
    </array>
   </total>
  </dos>
 </calculation>
 <structure name="finalpos" >
  <crystal>
   <varray name="basis" >
    <v>       3.50344967       0.00000000       0.00000000 </v>
    <v>       0.00000000       6.06808850       0.00000000 </v>
    <v>       0.00000000       0.00000000      35.00000000 </v>
   </varray>
   <i name="volume">    744.07349355 </i>
   <varray name="rec_basis" >
    <v>       0.28543296       0.00000000       0.00000000 </v>
    <v>       0.00000000       0.16479654       0.00000000 </v>
    <v>       0.00000000       0.00000000       0.02857143 </v>
   </varray>
  </crystal>
  <varray name="positions" >
   <v>      -0.00000000       0.66666212       0.16114054 </v>
   <v>      -0.00000000       0.66666230       0.05820024 </v>
   <v>       0.50000000       0.16666212       0.16114054 </v>
   <v>       0.50000000       0.16666230       0.05820024 </v>
   <v>      -0.00000000       0.33333770       0.38027533 </v>
   <v>      -0.00000000       0.33333788       0.27733503 </v>
   <v>       0.50000000       0.83333770       0.38027533 </v>
   <v>       0.50000000       0.83333788       0.27733503 </v>
   <v>       0.00000000       0.00000066       0.10961466 </v>
   <v>       0.50000000       0.50000066       0.10961466 </v>
   <v>      -0.00000000      -0.00000066       0.32886091 </v>
   <v>       0.50000000       0.49999934       0.32886091 </v>
  </varray>
 </structure>
</modeling>
