<?xml version="1.0" encoding="ISO-8859-1"?>
<modeling>
 <generator>
  <i name="program" type="string">vasp </i>
  <i name="version" type="string">5.3.5  </i>
  <i name="subversion" type="string">31Mar14 (build Mar 18 2017 11:34:20) complex                          parallel </i>
  <i name="platform" type="string">LinuxIFC </i>
  <i name="date" type="string">2018 02 07 </i>
  <i name="time" type="string">14:11:27 </i>
 </generator>
 <incar>
  <i type="string" name="SYSTEM"> MoTe2</i>
  <i type="string" name="PREC">accurate</i>
  <i type="string" name="ALGO"> Normal</i>
  <i type="logical" name="ADDGRID"> T  </i>
  <i type="int" name="IBRION">     2</i>
  <i name="EDIFF">      0.00001000</i>
  <i type="int" name="NSW">  1000</i>
  <i type="int" name="ISIF">     2</i>
  <i type="int" name="ISYM">     0</i>
  <i name="ENCUT">    400.00000000</i>
  <i name="POTIM">      0.50000000</i>
  <i type="logical" name="LREAL"> F  </i>
  <i type="int" name="ISMEAR">     0</i>
  <i name="SIGMA">      0.05000000</i>
  <i type="int" name="NWRITE">     1</i>
  <i type="logical" name="LWAVE"> F  </i>
  <i type="logical" name="LCHARG"> F  </i>
 </incar>
 <kpoints>
  <generation param="Monkhorst-Pack">
   <v type="int" name="divisions">       4        4        1 </v>
   <v name="usershift">      0.00000000       0.00000000       0.00000000 </v>
   <v name="genvec1">      0.25000000       0.00000000       0.00000000 </v>
   <v name="genvec2">      0.00000000       0.25000000       0.00000000 </v>
   <v name="genvec3">      0.00000000       0.00000000       1.00000000 </v>
   <v name="shift">      0.50000000       0.50000000       0.00000000 </v>
  </generation>
  <varray name="kpointlist" >
   <v>       0.12500000       0.12500000       0.00000000 </v>
   <v>       0.37500000       0.12500000       0.00000000 </v>
   <v>      -0.37500000       0.12500000       0.00000000 </v>
   <v>      -0.12500000       0.12500000       0.00000000 </v>
   <v>       0.12500000       0.37500000       0.00000000 </v>
   <v>       0.37500000       0.37500000       0.00000000 </v>
   <v>      -0.37500000       0.37500000       0.00000000 </v>
   <v>      -0.12500000       0.37500000       0.00000000 </v>
  </varray>
  <varray name="weights" >
   <v>       0.12500000 </v>
   <v>       0.12500000 </v>
   <v>       0.12500000 </v>
   <v>       0.12500000 </v>
   <v>       0.12500000 </v>
   <v>       0.12500000 </v>
   <v>       0.12500000 </v>
   <v>       0.12500000 </v>
  </varray>
 </kpoints>
 <parameters>
  <separator name="general" >
   <i type="string" name="SYSTEM">MoTe2</i>
   <i type="logical" name="LCOMPAT"> F  </i>
  </separator>
  <separator name="electronic" >
   <i type="string" name="PREC">accura</i>
   <i name="ENMAX">    400.00000000</i>
   <i name="ENAUG">    368.79200000</i>
   <i name="EDIFF">      0.00001000</i>
   <i type="int" name="IALGO">    38</i>
   <i type="int" name="IWAVPR">    11</i>
   <i type="int" name="NBANDS">   176</i>
   <i name="NELECT">    288.00000000</i>
   <i type="int" name="TURBO">     0</i>
   <i type="int" name="IRESTART">     0</i>
   <i type="int" name="NREBOOT">     0</i>
   <i type="int" name="NMIN">     0</i>
   <i name="EREF">      0.00000000</i>
   <separator name="electronic smearing" >
    <i type="int" name="ISMEAR">     0</i>
    <i name="SIGMA">      0.05000000</i>
    <i name="KSPACING">      0.50000000</i>
    <i type="logical" name="KGAMMA"> T  </i>
   </separator>
   <separator name="electronic projectors" >
    <i type="logical" name="LREAL"> F  </i>
    <v name="ROPT">      0.00000000      0.00000000</v>
    <i type="int" name="LMAXPAW">  -100</i>
    <i type="int" name="LMAXMIX">     2</i>
    <i type="logical" name="NLSPLINE"> F  </i>
   </separator>
   <separator name="electronic startup" >
    <i type="int" name="ISTART">     0</i>
    <i type="int" name="ICHARG">     2</i>
    <i type="int" name="INIWAV">     1</i>
   </separator>
   <separator name="electronic spin" >
    <i type="int" name="ISPIN">     1</i>
    <i type="logical" name="LNONCOLLINEAR"> F  </i>
    <v name="MAGMOM">      1.00000000      1.00000000      1.00000000      1.00000000      1.00000000      1.00000000      1.00000000      1.00000000      1.00000000      1.00000000      1.00000000      1.00000000      1.00000000      1.00000000      1.00000000      1.00000000      1.00000000      1.00000000      1.00000000      1.00000000
      1.00000000      1.00000000      1.00000000      1.00000000      1.00000000      1.00000000      1.00000000      1.00000000      1.00000000      1.00000000      1.00000000      1.00000000      1.00000000      1.00000000      1.00000000      1.00000000      1.00000000      1.00000000      1.00000000      1.00000000
      1.00000000      1.00000000      1.00000000      1.00000000      1.00000000      1.00000000      1.00000000      1.00000000</v>
    <i name="NUPDOWN">     -1.00000000</i>
    <i type="logical" name="LSORBIT"> F  </i>
    <v name="SAXIS">      0.00000000      0.00000000      1.00000000</v>
    <i type="logical" name="LSPIRAL"> F  </i>
    <v name="QSPIRAL">      0.00000000      0.00000000      0.00000000</v>
    <i type="logical" name="LZEROZ"> F  </i>
   </separator>
   <separator name="electronic exchange-correlation" >
    <i type="logical" name="LASPH"> F  </i>
    <i type="logical" name="LMETAGGA"> F  </i>
   </separator>
   <separator name="electronic convergence" >
    <i type="int" name="NELM">    60</i>
    <i type="int" name="NELMDL">    -5</i>
    <i type="int" name="NELMIN">     2</i>
    <i name="ENINI">    400.00000000</i>
    <separator name="electronic convergence detail" >
     <i type="logical" name="LDIAG"> T  </i>
     <i type="logical" name="LSUBROT"> F  </i>
     <i name="WEIMIN">      0.00100000</i>
     <i name="EBREAK">      0.00000001</i>
     <i name="DEPER">      0.30000000</i>
     <i type="int" name="NRMM">     4</i>
     <i name="TIME">      0.40000000</i>
    </separator>
   </separator>
   <separator name="electronic mixer" >
    <i name="AMIX">      0.40000000</i>
    <i name="BMIX">      1.00000000</i>
    <i name="AMIN">      0.10000000</i>
    <i name="AMIX_MAG">      1.60000000</i>
    <i name="BMIX_MAG">      1.00000000</i>
    <separator name="electronic mixer details" >
     <i type="int" name="IMIX">     4</i>
     <i type="int" name="MAXMIX">   -45</i>
     <i name="WC">    100.00000000</i>
     <i type="int" name="INIMIX">     1</i>
     <i type="int" name="MIXPRE">     1</i>
     <i type="int" name="MREMOVE">     5</i>
    </separator>
   </separator>
   <separator name="electronic dipolcorrection" >
    <i type="logical" name="LDIPOL"> F  </i>
    <i type="logical" name="LMONO"> F  </i>
    <i type="int" name="IDIPOL">     0</i>
    <i name="EPSILON">      1.00000000</i>
    <v name="DIPOL">   -100.00000000   -100.00000000   -100.00000000</v>
    <i name="EFIELD">      0.00000000</i>
   </separator>
  </separator>
  <separator name="grids" >
   <i type="int" name="NGX">    90</i>
   <i type="int" name="NGY">    84</i>
   <i type="int" name="NGZ">   108</i>
   <i type="int" name="NGXF">   180</i>
   <i type="int" name="NGYF">   168</i>
   <i type="int" name="NGZF">   216</i>
   <i type="logical" name="ADDGRID"> T  </i>
  </separator>
  <separator name="ionic" >
   <i type="int" name="NSW">  1000</i>
   <i type="int" name="IBRION">     2</i>
   <i type="int" name="ISIF">     2</i>
   <i name="PSTRESS">      0.00000000</i>
   <i name="EDIFFG">      0.00010000</i>
   <i type="int" name="NFREE">     1</i>
   <i name="POTIM">      0.50000000</i>
   <i name="SMASS">     -3.00000000</i>
   <i name="SCALEE">      1.00000000</i>
  </separator>
  <separator name="ionic md" >
   <i name="TEBEG">      0.00010000</i>
   <i name="TEEND">      0.00010000</i>
   <i type="int" name="NBLOCK">     1</i>
   <i type="int" name="KBLOCK">  1000</i>
   <i type="int" name="NPACO">   256</i>
   <i name="APACO">     16.00000000</i>
  </separator>
  <separator name="symmetry" >
   <i type="int" name="ISYM">     0</i>
   <i name="SYMPREC">      0.00001000</i>
  </separator>
  <separator name="dos" >
   <i type="logical" name="LORBIT"> F  </i>
   <v name="RWIGS">     -1.00000000     -1.00000000</v>
   <i type="int" name="NEDOS">   301</i>
   <i name="EMIN">     10.00000000</i>
   <i name="EMAX">    -10.00000000</i>
   <i name="EFERMI">      0.00000000</i>
  </separator>
  <separator name="writing" >
   <i type="int" name="NWRITE">     1</i>
   <i type="logical" name="LWAVE"> F  </i>
   <i type="logical" name="LCHARG"> F  </i>
   <i type="logical" name="LPARD"> F  </i>
   <i type="logical" name="LVTOT"> F  </i>
   <i type="logical" name="LVHAR"> F  </i>
   <i type="logical" name="LELF"> F  </i>
   <i type="logical" name="LOPTICS"> F  </i>
   <v name="STM">      0.00000000      0.00000000      0.00000000      0.00000000      0.00000000      0.00000000      0.00000000</v>
  </separator>
  <separator name="performance" >
   <i type="int" name="NPAR">    16</i>
   <i type="int" name="NSIM">     4</i>
   <i type="int" name="NBLK">    -1</i>
   <i type="logical" name="LPLANE"> T  </i>
   <i type="logical" name="LSCALAPACK"> T  </i>
   <i type="logical" name="LSCAAWARE"> F  </i>
   <i type="logical" name="LSCALU"> F  </i>
   <i type="logical" name="LASYNC"> F  </i>
   <i type="logical" name="LORBITALREAL"> F  </i>
  </separator>
  <separator name="miscellaneous" >
   <i type="int" name="IDIOT">     3</i>
   <i type="logical" name="LMUSIC"> F  </i>
   <v name="POMASS">    127.60000000     95.94000000</v>
   <v name="DARWINR">      0.00000000      0.00000000</v>
   <v name="DARWINV">      1.00000000      1.00000000</v>
   <i type="logical" name="LCORR"> T  </i>
  </separator>
  <i type="logical" name="GGA_COMPAT"> T  </i>
  <i type="logical" name="LBERRY"> F  </i>
  <i type="int" name="ICORELEVEL">     0</i>
  <i type="logical" name="LDAU"> F  </i>
  <i type="int" name="I_CONSTRAINED_M">     0</i>
  <separator name="electronic exchange-correlation" >
   <i type="string" name="GGA">--</i>
   <i type="int" name="VOSKOWN">     0</i>
   <i type="logical" name="LHFCALC"> F  </i>
   <i type="string" name="PRECFOCK"></i>
   <i type="logical" name="LSYMGRAD"> F  </i>
   <i type="logical" name="LHFONE"> F  </i>
   <i type="logical" name="LRHFCALC"> F  </i>
   <i type="logical" name="LTHOMAS"> F  </i>
   <i type="logical" name="LMODELHF"> F  </i>
   <i name="ENCUT4O">     -1.00000000</i>
   <i type="int" name="EXXOEP">     0</i>
   <i type="int" name="FOURORBIT">     0</i>
   <i name="AEXX">      0.00000000</i>
   <i name="HFALPHA">      0.00000000</i>
   <i name="MCALPHA">      0.00000000</i>
   <i name="ALDAX">      1.00000000</i>
   <i name="AGGAX">      1.00000000</i>
   <i name="ALDAC">      1.00000000</i>
   <i name="AGGAC">      1.00000000</i>
   <i type="int" name="NKREDX">     1</i>
   <i type="int" name="NKREDY">     1</i>
   <i type="int" name="NKREDZ">     1</i>
   <i type="logical" name="SHIFTRED"> F  </i>
   <i type="logical" name="ODDONLY"> F  </i>
   <i type="logical" name="EVENONLY"> F  </i>
   <i type="int" name="LMAXFOCK">     0</i>
   <i type="int" name="NMAXFOCKAE">     0</i>
   <i type="logical" name="LFOCKAEDFT"> F  </i>
   <i name="HFSCREEN">      0.00000000</i>
   <i name="HFSCREENC">      0.00000000</i>
   <i type="int" name="NBANDSGWLOW">     0</i>
  </separator>
  <separator name="vdW DFT" >
   <i type="logical" name="LUSE_VDW"> F  </i>
   <i name="Zab_VDW">     -0.84910000</i>
   <i name="PARAM1">      0.12340000</i>
   <i name="PARAM2">      1.00000000</i>
   <i name="PARAM3">      0.00000000</i>
  </separator>
  <separator name="model GW" >
   <i type="int" name="MODEL_GW">     0</i>
   <i name="MODEL_EPS0">     35.17173678</i>
   <i name="MODEL_ALPHA">      1.00000000</i>
  </separator>
  <separator name="linear response parameters" >
   <i type="logical" name="LEPSILON"> F  </i>
   <i type="logical" name="LRPA"> F  </i>
   <i type="logical" name="LNABLA"> F  </i>
   <i type="logical" name="LVEL"> F  </i>
   <i type="int" name="KINTER">     0</i>
   <i name="CSHIFT">      0.10000000</i>
   <i name="OMEGAMAX">     -1.00000000</i>
   <i name="DEG_THRESHOLD">      0.00200000</i>
  </separator>
  <separator name="orbital magnetization" >
   <i type="logical" name="NUCIND"> F  </i>
   <v name="MAGPOS">      0.00000000      0.00000000      0.00000000</v>
   <i type="logical" name="LNICSALL"> T  </i>
   <i type="logical" name="ORBITALMAG"> F  </i>
   <i type="logical" name="LMAGBLOCH"> F  </i>
   <i type="logical" name="LCHIMAG"> F  </i>
   <i type="logical" name="LGAUGE"> T  </i>
   <i type="int" name="MAGATOM">     0</i>
   <v name="MAGDIPOL">      0.00000000      0.00000000      0.00000000</v>
   <v name="AVECCONST">      0.00000000      0.00000000      0.00000000</v>
  </separator>
  <separator name="response functions" >
   <i type="logical" name="LADDER"> F  </i>
   <i type="logical" name="LFXC"> F  </i>
   <i type="logical" name="LHARTREE"> T  </i>
   <i type="int" name="IBSE">     0</i>
   <i type="logical" name="LTCTE"> F  </i>
   <i type="logical" name="LTETE"> F  </i>
   <i type="logical" name="LTRIPLET"> F  </i>
   <i type="logical" name="LFXCEPS"> F  </i>
   <i type="logical" name="LFXHEG"> F  </i>
   <i type="logical" name="L2ORDER"> F  </i>
   <i type="logical" name="LUSEW"> F  </i>
   <i name="ENCUTGW">     -2.00000000</i>
   <i name="ENCUTGWSOFT">     -2.00000000</i>
   <i name="ENCUTLF">     -1.00000000</i>
   <i type="int" name="LMAXMP2">    -1</i>
   <i name="SCISSOR">      0.00000000</i>
   <i type="int" name="NOMEGA">     0</i>
   <i type="int" name="NOMEGAR">     0</i>
   <i type="int" name="NBANDSGW">    -1</i>
   <i type="int" name="NBANDSO">    -1</i>
   <i type="int" name="NBANDSV">    -1</i>
   <i type="int" name="NELM">     1</i>
   <i type="int" name="DIM">     3</i>
   <i type="int" name="ANTIRES">     0</i>
   <i name="OMEGAMAX">    -30.00000000</i>
   <i name="OMEGAMIN">    -30.00000000</i>
   <i name="OMEGATL">   -200.00000000</i>
   <i type="int" name="OMEGAGRID">     0</i>
   <i name="CSHIFT">     -0.10000000</i>
   <i type="logical" name="SELFENERGY"> F  </i>
   <i type="logical" name="LSPECTRAL"> F  </i>
   <i type="logical" name="ODDONLYGW"> F  </i>
   <i type="logical" name="EVENONLYGW"> F  </i>
   <i type="int" name="NKREDLFX">     1</i>
   <i type="int" name="NKREDLFY">     1</i>
   <i type="int" name="NKREDLFZ">     1</i>
   <i type="int" name="MAXMEM">  1800</i>
   <i type="int" name="TELESCOPE">     0</i>
   <i type="int" name="TAUPAR">     1</i>
  </separator>
  <separator name="External order field" >
   <i name="OFIELD_KAPPA">      0.00000000</i>
   <v name="OFIELD_K">      0.00000000      0.00000000      0.00000000</v>
   <i name="OFIELD_Q6_NEAR">      0.00000000</i>
   <i name="OFIELD_Q6_FAR">      0.00000000</i>
   <i name="OFIELD_A">      0.00000000</i>
  </separator>
 </parameters>
 <atominfo>
  <atoms>      48 </atoms>
  <types>       2 </types>
  <array name="atoms" >
   <dimension dim="1">ion</dimension>
   <field type="string">element</field>
   <field type="int">atomtype</field>
   <set>
    <rc><c>Te</c><c>   1</c></rc>
    <rc><c>Te</c><c>   1</c></rc>
    <rc><c>Te</c><c>   1</c></rc>
    <rc><c>Te</c><c>   1</c></rc>
    <rc><c>Te</c><c>   1</c></rc>
    <rc><c>Te</c><c>   1</c></rc>
    <rc><c>Te</c><c>   1</c></rc>
    <rc><c>Te</c><c>   1</c></rc>
    <rc><c>Te</c><c>   1</c></rc>
    <rc><c>Te</c><c>   1</c></rc>
    <rc><c>Te</c><c>   1</c></rc>
    <rc><c>Te</c><c>   1</c></rc>
    <rc><c>Te</c><c>   1</c></rc>
    <rc><c>Te</c><c>   1</c></rc>
    <rc><c>Te</c><c>   1</c></rc>
    <rc><c>Te</c><c>   1</c></rc>
    <rc><c>Te</c><c>   1</c></rc>
    <rc><c>Te</c><c>   1</c></rc>
    <rc><c>Te</c><c>   1</c></rc>
    <rc><c>Te</c><c>   1</c></rc>
    <rc><c>Te</c><c>   1</c></rc>
    <rc><c>Te</c><c>   1</c></rc>
    <rc><c>Te</c><c>   1</c></rc>
    <rc><c>Te</c><c>   1</c></rc>
    <rc><c>Te</c><c>   1</c></rc>
    <rc><c>Te</c><c>   1</c></rc>
    <rc><c>Te</c><c>   1</c></rc>
    <rc><c>Te</c><c>   1</c></rc>
    <rc><c>Te</c><c>   1</c></rc>
    <rc><c>Te</c><c>   1</c></rc>
    <rc><c>Te</c><c>   1</c></rc>
    <rc><c>Te</c><c>   1</c></rc>
    <rc><c>Mo</c><c>   2</c></rc>
    <rc><c>Mo</c><c>   2</c></rc>
    <rc><c>Mo</c><c>   2</c></rc>
    <rc><c>Mo</c><c>   2</c></rc>
    <rc><c>Mo</c><c>   2</c></rc>
    <rc><c>Mo</c><c>   2</c></rc>
    <rc><c>Mo</c><c>   2</c></rc>
    <rc><c>Mo</c><c>   2</c></rc>
    <rc><c>Mo</c><c>   2</c></rc>
    <rc><c>Mo</c><c>   2</c></rc>
    <rc><c>Mo</c><c>   2</c></rc>
    <rc><c>Mo</c><c>   2</c></rc>
    <rc><c>Mo</c><c>   2</c></rc>
    <rc><c>Mo</c><c>   2</c></rc>
    <rc><c>Mo</c><c>   2</c></rc>
    <rc><c>Mo</c><c>   2</c></rc>
   </set>
  </array>
  <array name="atomtypes" >
   <dimension dim="1">type</dimension>
   <field type="int">atomspertype</field>
   <field type="string">element</field>
   <field>mass</field>
   <field>valence</field>
   <field type="string">pseudopotential</field>
   <set>
    <rc><c>  32</c><c>Te</c><c>    127.60000000</c><c>      6.00000000</c><c>  PAW_PBE Te 08Apr2002                  </c></rc>
    <rc><c>  16</c><c>Mo</c><c>     95.94000000</c><c>      6.00000000</c><c>  PAW_PBE Mo 08Apr2002                  </c></rc>
   </set>
  </array>
 </atominfo>
 <structure name="initialpos" >
  <crystal>
   <varray name="basis" >
    <v>      13.80799961       0.00000000       0.00000000 </v>
    <v>       0.00000000      12.73600006       0.00000000 </v>
    <v>       0.00000000       0.00000000      16.00000000 </v>
   </varray>
   <i name="volume">   2813.73894219 </i>
   <varray name="rec_basis" >
    <v>       0.07242179       0.00000000       0.00000000 </v>
    <v>       0.00000000       0.07851759       0.00000000 </v>
    <v>       0.00000000       0.00000000       0.06250000 </v>
   </varray>
  </crystal>
  <varray name="positions" >
   <v>       0.12500000       0.05081658       0.62913311 </v>
   <v>       0.62500000       0.05081658       0.62913311 </v>
   <v>       0.37500000       0.05081658       0.62913311 </v>
   <v>       0.87500000       0.05081658       0.62913311 </v>
   <v>       0.12500000       0.55081660       0.62913311 </v>
   <v>       0.62500000       0.55081660       0.62913311 </v>
   <v>       0.37500000       0.55081660       0.62913311 </v>
   <v>       0.87500000       0.55081660       0.62913311 </v>
   <v>       0.12500000       0.37457836       0.40758437 </v>
   <v>       0.62500000       0.37457836       0.40758437 </v>
   <v>       0.37500000       0.37457836       0.40758437 </v>
   <v>       0.87500000       0.37457836       0.40758437 </v>
   <v>       0.12500000       0.87457836       0.40758437 </v>
   <v>       0.62500000       0.87457836       0.40758437 </v>
   <v>       0.37500000       0.87457836       0.40758437 </v>
   <v>       0.87500000       0.87457836       0.40758437 </v>
   <v>       0.00000000       0.12870525       0.37086561 </v>
   <v>       0.50000000       0.12870525       0.37086561 </v>
   <v>       0.25000000       0.12870525       0.37086561 </v>
   <v>       0.75000000       0.12870525       0.37086561 </v>
   <v>       0.00000000       0.62870526       0.37086561 </v>
   <v>       0.50000000       0.62870526       0.37086561 </v>
   <v>       0.25000000       0.62870526       0.37086561 </v>
   <v>       0.75000000       0.62870526       0.37086561 </v>
   <v>       0.00000000       0.30494031       0.59241623 </v>
   <v>       0.50000000       0.30494031       0.59241623 </v>
   <v>       0.25000000       0.30494031       0.59241623 </v>
   <v>       0.75000000       0.30494031       0.59241623 </v>
   <v>       0.00000000       0.80494034       0.59241623 </v>
   <v>       0.50000000       0.80494034       0.59241623 </v>
   <v>       0.25000000       0.80494034       0.59241623 </v>
   <v>       0.75000000       0.80494034       0.59241623 </v>
   <v>       0.12500000       0.18029837       0.49406749 </v>
   <v>       0.62500000       0.18029837       0.49406749 </v>
   <v>       0.37500000       0.18029837       0.49406749 </v>
   <v>       0.87500000       0.18029837       0.49406749 </v>
   <v>       0.12500000       0.68029839       0.49406749 </v>
   <v>       0.62500000       0.68029839       0.49406749 </v>
   <v>       0.37500000       0.68029839       0.49406749 </v>
   <v>       0.87500000       0.68029839       0.49406749 </v>
   <v>       0.00000000       0.99921954       0.50593311 </v>
   <v>       0.50000000       0.99921954       0.50593311 </v>
   <v>       0.25000000       0.99921954       0.50593311 </v>
   <v>       0.75000000       0.99921954       0.50593311 </v>
   <v>       0.00000000       0.49921954       0.50593311 </v>
   <v>       0.50000000       0.49921954       0.50593311 </v>
   <v>       0.25000000       0.49921954       0.50593311 </v>
   <v>       0.75000000       0.49921954       0.50593311 </v>
  </varray>
 </structure>
 <calculation>
  <scstep>
   <time name="dav">    7.39    7.43</time>
   <time name="total">    7.93    7.98</time>
   <energy>
    <i name="alphaZ">    201.53363484 </i>
    <i name="ewald">  13653.05954605 </i>
    <i name="hartreedc"> -23891.87929671 </i>
    <i name="XCdc">  -1870.31152287 </i>
    <i name="pawpsdc">  10897.14258583 </i>
    <i name="pawaedc">  -8526.97680451 </i>
    <i name="eentropy">     -0.03498270 </i>
    <i name="bandstr">    600.50260758 </i>
    <i name="atom">  10624.91387364 </i>
    <i name="e_fr_energy">   1687.94964116 </i>
    <i name="e_wo_entrp">   1687.98462386 </i>
    <i name="e_0_energy">   1687.96713251 </i>
   </energy>
  </scstep>
  <scstep>
   <time name="dav">    9.40    9.43</time>
   <time name="total">    9.40    9.44</time>
   <energy>
    <i name="e_fr_energy">    -80.43238092 </i>
    <i name="e_wo_entrp">    -80.42111837 </i>
    <i name="e_0_energy">    -80.42674964 </i>
   </energy>
  </scstep>
  <scstep>
   <time name="dav">    7.93    7.93</time>
   <time name="total">    7.93    7.94</time>
   <energy>
    <i name="e_fr_energy">   -286.76461577 </i>
    <i name="e_wo_entrp">   -286.75088478 </i>
    <i name="e_0_energy">   -286.75775028 </i>
   </energy>
  </scstep>
  <scstep>
   <time name="dav">    9.89    9.89</time>
   <time name="total">    9.90    9.90</time>
   <energy>
    <i name="e_fr_energy">   -298.98049881 </i>
    <i name="e_wo_entrp">   -298.96875256 </i>
    <i name="e_0_energy">   -298.97462568 </i>
   </energy>
  </scstep>
  <scstep>
   <time name="dav">    9.75    9.79</time>
   <time name="total">   10.50   10.54</time>
   <energy>
    <i name="e_fr_energy">   -299.32863650 </i>
    <i name="e_wo_entrp">   -299.31705437 </i>
    <i name="e_0_energy">   -299.32284543 </i>
   </energy>
  </scstep>
  <scstep>
   <time name="dav">    9.28    9.28</time>
   <time name="total">   10.47   10.48</time>
   <energy>
    <i name="e_fr_energy">   -291.81140916 </i>
    <i name="e_wo_entrp">   -291.79151166 </i>
    <i name="e_0_energy">   -291.80146041 </i>
   </energy>
  </scstep>
  <scstep>
   <time name="dav">    8.86    8.87</time>
   <time name="total">   10.06   10.07</time>
   <energy>
    <i name="e_fr_energy">   -291.61601383 </i>
    <i name="e_wo_entrp">   -291.60597367 </i>
    <i name="e_0_energy">   -291.61099375 </i>
   </energy>
  </scstep>
  <scstep>
   <time name="dav">    9.13    9.17</time>
   <time name="total">   10.36   10.40</time>
   <energy>
    <i name="e_fr_energy">   -288.05132801 </i>
    <i name="e_wo_entrp">   -288.04033024 </i>
    <i name="e_0_energy">   -288.04582913 </i>
   </energy>
  </scstep>
  <scstep>
   <time name="dav">    9.51    9.51</time>
   <time name="total">   10.71   10.72</time>
   <energy>
    <i name="e_fr_energy">   -287.88834513 </i>
    <i name="e_wo_entrp">   -287.87236767 </i>
    <i name="e_0_energy">   -287.88035640 </i>
   </energy>
  </scstep>
  <scstep>
   <time name="dav">    9.03    9.03</time>
   <time name="total">   10.22   10.22</time>
   <energy>
    <i name="e_fr_energy">   -287.84178131 </i>
    <i name="e_wo_entrp">   -287.82779554 </i>
    <i name="e_0_energy">   -287.83478842 </i>
   </energy>
  </scstep>
  <scstep>
   <time name="dav">    9.45    9.50</time>
   <time name="total">   10.64   10.69</time>
   <energy>
    <i name="e_fr_energy">   -287.82974660 </i>
    <i name="e_wo_entrp">   -287.81489672 </i>
    <i name="e_0_energy">   -287.82232166 </i>
   </energy>
  </scstep>
  <scstep>
   <time name="dav">    9.22    9.22</time>
   <time name="total">   10.41   10.42</time>
   <energy>
    <i name="e_fr_energy">   -287.81968727 </i>
    <i name="e_wo_entrp">   -287.80522653 </i>
    <i name="e_0_energy">   -287.81245690 </i>
   </energy>
  </scstep>
  <scstep>
   <time name="dav">    9.59    9.59</time>
   <time name="total">   10.78   10.79</time>
   <energy>
    <i name="e_fr_energy">   -287.81620616 </i>
    <i name="e_wo_entrp">   -287.80207030 </i>
    <i name="e_0_energy">   -287.80913823 </i>
   </energy>
  </scstep>
  <scstep>
   <time name="dav">    9.30    9.33</time>
   <time name="total">   10.49   10.53</time>
   <energy>
    <i name="e_fr_energy">   -287.81485825 </i>
    <i name="e_wo_entrp">   -287.80070586 </i>
    <i name="e_0_energy">   -287.80778206 </i>
   </energy>
  </scstep>
  <scstep>
   <time name="dav">    8.27    8.27</time>
   <time name="total">    9.47    9.48</time>
   <energy>
    <i name="e_fr_energy">   -287.81070965 </i>
    <i name="e_wo_entrp">   -287.79639801 </i>
    <i name="e_0_energy">   -287.80355383 </i>
   </energy>
  </scstep>
  <scstep>
   <time name="dav">    9.35    9.79</time>
   <time name="total">   10.54   10.98</time>
   <energy>
    <i name="e_fr_energy">   -287.80964581 </i>
    <i name="e_wo_entrp">   -287.79520359 </i>
    <i name="e_0_energy">   -287.80242470 </i>
   </energy>
  </scstep>
  <scstep>
   <time name="dav">    9.51    9.54</time>
   <time name="total">   10.70   10.74</time>
   <energy>
    <i name="e_fr_energy">   -287.81008170 </i>
    <i name="e_wo_entrp">   -287.79559999 </i>
    <i name="e_0_energy">   -287.80284084 </i>
   </energy>
  </scstep>
  <scstep>
   <time name="dav">    8.78    8.78</time>
   <time name="total">    9.97    9.97</time>
   <energy>
    <i name="e_fr_energy">   -287.81076299 </i>
    <i name="e_wo_entrp">   -287.79629413 </i>
    <i name="e_0_energy">   -287.80352856 </i>
   </energy>
  </scstep>
  <scstep>
   <time name="dav">    9.10    9.10</time>
   <time name="total">   10.29   10.29</time>
   <energy>
    <i name="e_fr_energy">   -287.81256469 </i>
    <i name="e_wo_entrp">   -287.79812777 </i>
    <i name="e_0_energy">   -287.80534623 </i>
   </energy>
  </scstep>
  <scstep>
   <time name="dav">    7.90    7.94</time>
   <time name="total">    9.11    9.15</time>
   <energy>
    <i name="e_fr_energy">   -287.81336794 </i>
    <i name="e_wo_entrp">   -287.79892982 </i>
    <i name="e_0_energy">   -287.80614888 </i>
   </energy>
  </scstep>
  <scstep>
   <time name="dav">    6.35    6.35</time>
   <time name="total">    7.54    7.54</time>
   <energy>
    <i name="e_fr_energy">   -287.81362040 </i>
    <i name="e_wo_entrp">   -287.79917459 </i>
    <i name="e_0_energy">   -287.80639750 </i>
   </energy>
  </scstep>
  <scstep>
   <time name="dav">    6.15    6.15</time>
   <time name="total">    7.34    7.34</time>
   <energy>
    <i name="e_fr_energy">   -287.81418623 </i>
    <i name="e_wo_entrp">   -287.79973752 </i>
    <i name="e_0_energy">   -287.80696187 </i>
   </energy>
  </scstep>
  <scstep>
   <time name="dav">    6.67    6.67</time>
   <time name="total">    7.86    7.87</time>
   <energy>
    <i name="e_fr_energy">   -287.81479150 </i>
    <i name="e_wo_entrp">   -287.80034886 </i>
    <i name="e_0_energy">   -287.80757018 </i>
   </energy>
  </scstep>
  <scstep>
   <time name="dav">    5.60    5.64</time>
   <time name="total">    6.79    6.83</time>
   <energy>
    <i name="e_fr_energy">   -287.81494388 </i>
    <i name="e_wo_entrp">   -287.80050891 </i>
    <i name="e_0_energy">   -287.80772639 </i>
   </energy>
  </scstep>
  <scstep>
   <time name="dav">    5.45    5.45</time>
   <time name="total">    6.66    6.66</time>
   <energy>
    <i name="e_fr_energy">   -287.81497971 </i>
    <i name="e_wo_entrp">   -287.80054758 </i>
    <i name="e_0_energy">   -287.80776365 </i>
   </energy>
  </scstep>
  <scstep>
   <time name="dav">    5.37    5.37</time>
   <time name="total">    6.56    6.56</time>
   <energy>
    <i name="e_fr_energy">   -287.81502418 </i>
    <i name="e_wo_entrp">   -287.80059505 </i>
    <i name="e_0_energy">   -287.80780961 </i>
   </energy>
  </scstep>
  <scstep>
   <time name="dav">    5.70    5.70</time>
   <time name="total">    6.89    6.89</time>
   <energy>
    <i name="e_fr_energy">   -287.81504854 </i>
    <i name="e_wo_entrp">   -287.80061966 </i>
    <i name="e_0_energy">   -287.80783410 </i>
   </energy>
  </scstep>
  <scstep>
   <time name="dav">    5.45    5.45</time>
   <time name="total">    5.90    5.90</time>
   <energy>
    <i name="alphaZ">    201.53363484 </i>
    <i name="ewald">  13653.05954605 </i>
    <i name="hartreedc"> -24047.11480898 </i>
    <i name="XCdc">  -1858.26400682 </i>
    <i name="pawpsdc">  21560.03865360 </i>
    <i name="pawaedc"> -19211.63338486 </i>
    <i name="eentropy">     -0.01442979 </i>
    <i name="bandstr">  -1210.33412889 </i>
    <i name="atom">  10624.91387364 </i>
    <i name="e_fr_energy">   -287.81505120 </i>
    <i name="e_wo_entrp">   -287.80062141 </i>
    <i name="e_0_energy">   -287.80783631 </i>
   </energy>
  </scstep>
  <structure>
   <crystal>
    <varray name="basis" >
     <v>      13.80799961       0.00000000       0.00000000 </v>
     <v>       0.00000000      12.73600006       0.00000000 </v>
     <v>       0.00000000       0.00000000      16.00000000 </v>
    </varray>
    <i name="volume">   2813.73894219 </i>
    <varray name="rec_basis" >
     <v>       0.07242179       0.00000000       0.00000000 </v>
     <v>       0.00000000       0.07851759       0.00000000 </v>
     <v>       0.00000000       0.00000000       0.06250000 </v>
    </varray>
   </crystal>
   <varray name="positions" >
    <v>       0.12500000       0.05081658       0.62913311 </v>
    <v>       0.62500000       0.05081658       0.62913311 </v>
    <v>       0.37500000       0.05081658       0.62913311 </v>
    <v>       0.87500000       0.05081658       0.62913311 </v>
    <v>       0.12500000       0.55081660       0.62913311 </v>
    <v>       0.62500000       0.55081660       0.62913311 </v>
    <v>       0.37500000       0.55081660       0.62913311 </v>
    <v>       0.87500000       0.55081660       0.62913311 </v>
    <v>       0.12500000       0.37457836       0.40758437 </v>
    <v>       0.62500000       0.37457836       0.40758437 </v>
    <v>       0.37500000       0.37457836       0.40758437 </v>
    <v>       0.87500000       0.37457836       0.40758437 </v>
    <v>       0.12500000       0.87457836       0.40758437 </v>
    <v>       0.62500000       0.87457836       0.40758437 </v>
    <v>       0.37500000       0.87457836       0.40758437 </v>
    <v>       0.87500000       0.87457836       0.40758437 </v>
    <v>       0.00000000       0.12870525       0.37086561 </v>
    <v>       0.50000000       0.12870525       0.37086561 </v>
    <v>       0.25000000       0.12870525       0.37086561 </v>
    <v>       0.75000000       0.12870525       0.37086561 </v>
    <v>       0.00000000       0.62870526       0.37086561 </v>
    <v>       0.50000000       0.62870526       0.37086561 </v>
    <v>       0.25000000       0.62870526       0.37086561 </v>
    <v>       0.75000000       0.62870526       0.37086561 </v>
    <v>       0.00000000       0.30494031       0.59241623 </v>
    <v>       0.50000000       0.30494031       0.59241623 </v>
    <v>       0.25000000       0.30494031       0.59241623 </v>
    <v>       0.75000000       0.30494031       0.59241623 </v>
    <v>       0.00000000       0.80494034       0.59241623 </v>
    <v>       0.50000000       0.80494034       0.59241623 </v>
    <v>       0.25000000       0.80494034       0.59241623 </v>
    <v>       0.75000000       0.80494034       0.59241623 </v>
    <v>       0.12500000       0.18029837       0.49406749 </v>
    <v>       0.62500000       0.18029837       0.49406749 </v>
    <v>       0.37500000       0.18029837       0.49406749 </v>
    <v>       0.87500000       0.18029837       0.49406749 </v>
    <v>       0.12500000       0.68029839       0.49406749 </v>
    <v>       0.62500000       0.68029839       0.49406749 </v>
    <v>       0.37500000       0.68029839       0.49406749 </v>
    <v>       0.87500000       0.68029839       0.49406749 </v>
    <v>       0.00000000       0.99921954       0.50593311 </v>
    <v>       0.50000000       0.99921954       0.50593311 </v>
    <v>       0.25000000       0.99921954       0.50593311 </v>
    <v>       0.75000000       0.99921954       0.50593311 </v>
    <v>       0.00000000       0.49921954       0.50593311 </v>
    <v>       0.50000000       0.49921954       0.50593311 </v>
    <v>       0.25000000       0.49921954       0.50593311 </v>
    <v>       0.75000000       0.49921954       0.50593311 </v>
   </varray>
  </structure>
  <varray name="forces" >
   <v>      -0.00000346       0.00017178      -0.00217625 </v>
   <v>       0.00000490       0.00017024      -0.00218586 </v>
   <v>      -0.00000595       0.00017001      -0.00217575 </v>
   <v>       0.00000633       0.00016567      -0.00217147 </v>
   <v>      -0.00000609       0.00016383      -0.00216505 </v>
   <v>      -0.00000492       0.00015296      -0.00217564 </v>
   <v>       0.00000690       0.00016670      -0.00218329 </v>
   <v>       0.00000397       0.00016744      -0.00217704 </v>
   <v>      -0.00000551       0.00298092       0.00598288 </v>
   <v>      -0.00000597       0.00298272       0.00599306 </v>
   <v>       0.00000081       0.00298364       0.00598916 </v>
   <v>       0.00001065       0.00298782       0.00598702 </v>
   <v>      -0.00000598       0.00298103       0.00598041 </v>
   <v>       0.00000199       0.00299361       0.00598936 </v>
   <v>       0.00000535       0.00298316       0.00598732 </v>
   <v>       0.00000092       0.00298095       0.00598884 </v>
   <v>       0.00000636      -0.00040090       0.00257228 </v>
   <v>       0.00000128      -0.00039664       0.00257929 </v>
   <v>      -0.00000335      -0.00040192       0.00257908 </v>
   <v>      -0.00000396      -0.00040331       0.00258250 </v>
   <v>       0.00000064      -0.00040314       0.00257135 </v>
   <v>      -0.00001138      -0.00040934       0.00257771 </v>
   <v>      -0.00000419      -0.00039782       0.00256911 </v>
   <v>       0.00001517      -0.00040481       0.00257348 </v>
   <v>       0.00000808      -0.00298882      -0.00597892 </v>
   <v>      -0.00000144      -0.00299096      -0.00599174 </v>
   <v>      -0.00000609      -0.00299758      -0.00598094 </v>
   <v>      -0.00000055      -0.00299583      -0.00598505 </v>
   <v>      -0.00000466      -0.00299640      -0.00597826 </v>
   <v>      -0.00000249      -0.00299516      -0.00598453 </v>
   <v>       0.00000196      -0.00300132      -0.00598434 </v>
   <v>       0.00000574      -0.00299780      -0.00598938 </v>
   <v>       0.00000097      -0.00154579       0.00088934 </v>
   <v>       0.00000265      -0.00153293       0.00089069 </v>
   <v>      -0.00000499      -0.00153733       0.00088670 </v>
   <v>       0.00000007      -0.00154464       0.00088936 </v>
   <v>       0.00000242      -0.00154587       0.00089032 </v>
   <v>      -0.00000295      -0.00155049       0.00089166 </v>
   <v>      -0.00001594      -0.00154592       0.00089330 </v>
   <v>       0.00001488      -0.00154411       0.00089181 </v>
   <v>       0.00000903       0.00179014      -0.00129432 </v>
   <v>      -0.00000672       0.00178351      -0.00129304 </v>
   <v>      -0.00001216       0.00179601      -0.00129693 </v>
   <v>       0.00000654       0.00178603      -0.00129699 </v>
   <v>      -0.00000624       0.00179600      -0.00129260 </v>
   <v>       0.00000665       0.00178437      -0.00128796 </v>
   <v>       0.00000162       0.00179804      -0.00129059 </v>
   <v>      -0.00000090       0.00179225      -0.00129008 </v>
  </varray>
  <varray name="stress" >
   <v>       0.36208572      -0.00000178      -0.00000246 </v>
   <v>      -0.00000180      -0.20171081      -0.03124015 </v>
   <v>      -0.00000267      -0.03124020      -0.27501516 </v>
  </varray>
  <energy>
   <i name="e_fr_energy">   -287.81505120 </i>
   <i name="e_wo_entrp">   -287.80783631 </i>
   <i name="e_0_energy">     -0.01442979 </i>
  </energy>
  <time name="totalsc">  273.06  273.98</time>
 </calculation>
 <calculation>
  <scstep>
   <time name="dav">    7.73    7.73</time>
   <time name="total">    8.91    8.92</time>
   <energy>
    <i name="alphaZ">    201.53363484 </i>
    <i name="ewald">  13655.36463331 </i>
    <i name="hartreedc"> -24049.33810839 </i>
    <i name="XCdc">  -1858.25156743 </i>
    <i name="pawpsdc">  21559.80364509 </i>
    <i name="pawaedc"> -19211.39847539 </i>
    <i name="eentropy">     -0.01437660 </i>
    <i name="bandstr">  -1210.42833871 </i>
    <i name="atom">  10624.91387364 </i>
    <i name="e_fr_energy">   -287.81507964 </i>
    <i name="e_wo_entrp">   -287.80070304 </i>
    <i name="e_0_energy">   -287.80789134 </i>
   </energy>
  </scstep>
  <scstep>
   <time name="dav">    7.94    7.97</time>
   <time name="total">    8.39    8.43</time>
   <energy>
    <i name="alphaZ">    201.53363484 </i>
    <i name="ewald">  13655.36463331 </i>
    <i name="hartreedc"> -24049.33783387 </i>
    <i name="XCdc">  -1858.25201899 </i>
    <i name="pawpsdc">  21561.95265341 </i>
    <i name="pawaedc"> -19213.55036705 </i>
    <i name="eentropy">     -0.01437653 </i>
    <i name="bandstr">  -1210.42528688 </i>
    <i name="atom">  10624.91387364 </i>
    <i name="e_fr_energy">   -287.81508813 </i>
    <i name="e_wo_entrp">   -287.80071160 </i>
    <i name="e_0_energy">   -287.80789986 </i>
   </energy>
  </scstep>
  <structure>
   <crystal>
    <varray name="basis" >
     <v>      13.80799961       0.00000000       0.00000000 </v>
     <v>       0.00000000      12.73600006       0.00000000 </v>
     <v>       0.00000000       0.00000000      16.00000000 </v>
    </varray>
    <i name="volume">   2813.73894219 </i>
    <varray name="rec_basis" >
     <v>       0.07242179       0.00000000       0.00000000 </v>
     <v>       0.00000000       0.07851759       0.00000000 </v>
     <v>       0.00000000       0.00000000       0.06250000 </v>
    </varray>
   </crystal>
   <varray name="positions" >
    <v>       0.12499999       0.05081723       0.62912654 </v>
    <v>       0.62500002       0.05081723       0.62912651 </v>
    <v>       0.37499998       0.05081723       0.62912654 </v>
    <v>       0.87500002       0.05081721       0.62912656 </v>
    <v>       0.12499998       0.55081722       0.62912658 </v>
    <v>       0.62499998       0.55081718       0.62912655 </v>
    <v>       0.37500002       0.55081723       0.62912652 </v>
    <v>       0.87500001       0.55081723       0.62912654 </v>
    <v>       0.12499998       0.37458965       0.40760241 </v>
    <v>       0.62499998       0.37458966       0.40760244 </v>
    <v>       0.37500000       0.37458966       0.40760243 </v>
    <v>       0.87500004       0.37458967       0.40760242 </v>
    <v>       0.12499998       0.87458965       0.40760240 </v>
    <v>       0.62500001       0.87458970       0.40760243 </v>
    <v>       0.37500002       0.87458966       0.40760242 </v>
    <v>       0.87500000       0.87458965       0.40760243 </v>
    <v>       0.00000002       0.12870373       0.37087337 </v>
    <v>       0.50000000       0.12870375       0.37087339 </v>
    <v>       0.24999999       0.12870373       0.37087339 </v>
    <v>       0.74999999       0.12870372       0.37087340 </v>
    <v>       0.00000000       0.62870374       0.37087337 </v>
    <v>       0.49999996       0.62870371       0.37087339 </v>
    <v>       0.24999999       0.62870376       0.37087336 </v>
    <v>       0.75000005       0.62870373       0.37087337 </v>
    <v>       0.00000003       0.30492899       0.59239820 </v>
    <v>       0.49999999       0.30492898       0.59239816 </v>
    <v>       0.24999998       0.30492896       0.59239819 </v>
    <v>       0.75000000       0.30492897       0.59239818 </v>
    <v>      -0.00000002       0.80492899       0.59239820 </v>
    <v>       0.49999999       0.80492900       0.59239818 </v>
    <v>       0.25000001       0.80492897       0.59239818 </v>
    <v>       0.75000002       0.80492899       0.59239817 </v>
    <v>       0.12500000       0.18029252       0.49407017 </v>
    <v>       0.62500001       0.18029257       0.49407018 </v>
    <v>       0.37499998       0.18029255       0.49407016 </v>
    <v>       0.87500000       0.18029252       0.49407017 </v>
    <v>       0.12500001       0.68029253       0.49407017 </v>
    <v>       0.62499999       0.68029251       0.49407018 </v>
    <v>       0.37499994       0.68029253       0.49407018 </v>
    <v>       0.87500005       0.68029254       0.49407018 </v>
    <v>       0.00000003       0.99922632       0.50592920 </v>
    <v>       0.49999998       0.99922629       0.50592921 </v>
    <v>       0.24999996       0.99922634       0.50592920 </v>
    <v>       0.75000002       0.99922630       0.50592920 </v>
    <v>      -0.00000002       0.49922634       0.50592921 </v>
    <v>       0.50000002       0.49922630       0.50592922 </v>
    <v>       0.25000001       0.49922635       0.50592921 </v>
    <v>       0.75000000       0.49922633       0.50592922 </v>
   </varray>
  </structure>
  <varray name="forces" >
   <v>       0.00000947      -0.00050691      -0.00043059 </v>
   <v>      -0.00000103      -0.00051389      -0.00047680 </v>
   <v>       0.00001030      -0.00051005      -0.00046524 </v>
   <v>      -0.00001953      -0.00050835      -0.00045448 </v>
   <v>       0.00000603      -0.00051739      -0.00046703 </v>
   <v>       0.00001511      -0.00049242      -0.00048354 </v>
   <v>      -0.00001135      -0.00049776      -0.00047291 </v>
   <v>      -0.00000903      -0.00050716      -0.00047714 </v>
   <v>       0.00000437       0.00139395       0.00367866 </v>
   <v>       0.00001014       0.00139870       0.00367535 </v>
   <v>      -0.00000647       0.00139602       0.00367487 </v>
   <v>      -0.00000837       0.00139663       0.00368095 </v>
   <v>       0.00000641       0.00138333       0.00365150 </v>
   <v>       0.00000018       0.00138280       0.00369110 </v>
   <v>       0.00000167       0.00138145       0.00367850 </v>
   <v>      -0.00000821       0.00138305       0.00366610 </v>
   <v>      -0.00000224       0.00038937       0.00030203 </v>
   <v>      -0.00000071       0.00036531       0.00032810 </v>
   <v>       0.00000081       0.00038081       0.00030597 </v>
   <v>       0.00000203       0.00036732       0.00032473 </v>
   <v>      -0.00000674       0.00037034       0.00032158 </v>
   <v>       0.00000389       0.00038188       0.00035198 </v>
   <v>       0.00001440       0.00036579       0.00033673 </v>
   <v>      -0.00001195       0.00036695       0.00036086 </v>
   <v>      -0.00000253      -0.00131614      -0.00376043 </v>
   <v>      -0.00000043      -0.00132809      -0.00375449 </v>
   <v>       0.00000140      -0.00131225      -0.00376321 </v>
   <v>       0.00000110      -0.00131424      -0.00376510 </v>
   <v>      -0.00000210      -0.00133435      -0.00375032 </v>
   <v>      -0.00000020      -0.00133319      -0.00378616 </v>
   <v>       0.00000676      -0.00132926      -0.00376135 </v>
   <v>      -0.00000445      -0.00132945      -0.00378053 </v>
   <v>       0.00000167      -0.00008197      -0.00106345 </v>
   <v>       0.00000121      -0.00012980      -0.00105017 </v>
   <v>       0.00000332      -0.00011391      -0.00105180 </v>
   <v>      -0.00000481      -0.00010166      -0.00105691 </v>
   <v>       0.00000746      -0.00011931      -0.00105313 </v>
   <v>       0.00000287      -0.00011100      -0.00105191 </v>
   <v>       0.00002193      -0.00010825      -0.00105572 </v>
   <v>      -0.00003137      -0.00012157      -0.00105160 </v>
   <v>      -0.00002006       0.00017385       0.00128955 </v>
   <v>       0.00001409       0.00017882       0.00128233 </v>
   <v>       0.00003037       0.00017035       0.00129059 </v>
   <v>      -0.00002430       0.00017775       0.00128627 </v>
   <v>      -0.00000378       0.00016479       0.00128578 </v>
   <v>      -0.00000265       0.00020233       0.00126760 </v>
   <v>      -0.00000143       0.00017441       0.00128042 </v>
   <v>       0.00000676       0.00019235       0.00127249 </v>
  </varray>
  <varray name="stress" >
   <v>       0.40117835       0.00000077      -0.00000011 </v>
   <v>       0.00000066      -0.16385300      -0.02547482 </v>
   <v>      -0.00000039      -0.02547464      -0.18356044 </v>
  </varray>
  <energy>
   <i name="e_fr_energy">   -287.81508813 </i>
   <i name="e_wo_entrp">   -287.80789986 </i>
   <i name="e_0_energy">     -0.01437653 </i>
  </energy>
  <time name="totalsc">   35.09   35.15</time>
 </calculation>
 <calculation>
  <scstep>
   <time name="dav">    7.76    7.77</time>
   <time name="total">    8.95    8.95</time>
   <energy>
    <i name="alphaZ">    201.53363484 </i>
    <i name="ewald">  13657.47526044 </i>
    <i name="hartreedc"> -24051.38583491 </i>
    <i name="XCdc">  -1858.24126280 </i>
    <i name="pawpsdc">  21562.01682803 </i>
    <i name="pawaedc"> -19213.61579050 </i>
    <i name="eentropy">     -0.01432363 </i>
    <i name="bandstr">  -1210.49748143 </i>
    <i name="atom">  10624.91387364 </i>
    <i name="e_fr_energy">   -287.81509631 </i>
    <i name="e_wo_entrp">   -287.80077268 </i>
    <i name="e_0_energy">   -287.80793449 </i>
   </energy>
  </scstep>
  <scstep>
   <time name="dav">    7.95    7.99</time>
   <time name="total">    8.40    8.44</time>
   <energy>
    <i name="alphaZ">    201.53363484 </i>
    <i name="ewald">  13657.47526044 </i>
    <i name="hartreedc"> -24051.39281676 </i>
    <i name="XCdc">  -1858.24224816 </i>
    <i name="pawpsdc">  21564.25484639 </i>
    <i name="pawaedc"> -19215.85726180 </i>
    <i name="eentropy">     -0.01431933 </i>
    <i name="bandstr">  -1210.48607279 </i>
    <i name="atom">  10624.91387364 </i>
    <i name="e_fr_energy">   -287.81510352 </i>
    <i name="e_wo_entrp">   -287.80078419 </i>
    <i name="e_0_energy">   -287.80794386 </i>
   </energy>
  </scstep>
  <structure>
   <crystal>
    <varray name="basis" >
     <v>      13.80799961       0.00000000       0.00000000 </v>
     <v>       0.00000000      12.73600006       0.00000000 </v>
     <v>       0.00000000       0.00000000      16.00000000 </v>
    </varray>
    <i name="volume">   2813.73894219 </i>
    <varray name="rec_basis" >
     <v>       0.07242179       0.00000000       0.00000000 </v>
     <v>       0.00000000       0.07851759       0.00000000 </v>
     <v>       0.00000000       0.00000000       0.06250000 </v>
    </varray>
   </crystal>
   <varray name="positions" >
    <v>       0.12499998       0.05081783       0.62912054 </v>
    <v>       0.62500003       0.05081782       0.62912048 </v>
    <v>       0.37499996       0.05081782       0.62912054 </v>
    <v>       0.87500004       0.05081779       0.62912056 </v>
    <v>       0.12499996       0.55081778       0.62912060 </v>
    <v>       0.62499997       0.55081771       0.62912054 </v>
    <v>       0.37500005       0.55081781       0.62912049 </v>
    <v>       0.87500003       0.55081781       0.62912053 </v>
    <v>       0.12499996       0.37459999       0.40761893 </v>
    <v>       0.62499996       0.37460000       0.40761898 </v>
    <v>       0.37500001       0.37460001       0.40761896 </v>
    <v>       0.87500007       0.37460004       0.40761895 </v>
    <v>       0.12499996       0.87459999       0.40761891 </v>
    <v>       0.62500001       0.87460008       0.40761896 </v>
    <v>       0.37500004       0.87460000       0.40761895 </v>
    <v>       0.87500001       0.87459999       0.40761896 </v>
    <v>       0.00000004       0.12870234       0.37088047 </v>
    <v>       0.50000001       0.12870237       0.37088051 </v>
    <v>       0.24999998       0.12870233       0.37088051 </v>
    <v>       0.74999997       0.12870232       0.37088053 </v>
    <v>       0.00000000       0.62870234       0.37088046 </v>
    <v>       0.49999992       0.62870229       0.37088050 </v>
    <v>       0.24999997       0.62870238       0.37088045 </v>
    <v>       0.75000010       0.62870233       0.37088048 </v>
    <v>       0.00000005       0.30491863       0.59238169 </v>
    <v>       0.49999999       0.30491861       0.59238162 </v>
    <v>       0.24999996       0.30491856       0.59238168 </v>
    <v>       0.75000000       0.30491857       0.59238166 </v>
    <v>      -0.00000003       0.80491860       0.59238170 </v>
    <v>       0.49999998       0.80491861       0.59238166 </v>
    <v>       0.25000001       0.80491857       0.59238166 </v>
    <v>       0.75000004       0.80491859       0.59238163 </v>
    <v>       0.12500001       0.18028716       0.49407263 </v>
    <v>       0.62500002       0.18028725       0.49407263 </v>
    <v>       0.37499997       0.18028722       0.49407261 </v>
    <v>       0.87500000       0.18028716       0.49407263 </v>
    <v>       0.12500002       0.68028717       0.49407263 </v>
    <v>       0.62499998       0.68028714       0.49407264 </v>
    <v>       0.37499989       0.68028717       0.49407265 </v>
    <v>       0.87500010       0.68028718       0.49407264 </v>
    <v>       0.00000006       0.99923253       0.50592563 </v>
    <v>       0.49999996       0.99923248       0.50592564 </v>
    <v>       0.24999992       0.99923257       0.50592562 </v>
    <v>       0.75000004       0.99923250       0.50592561 </v>
    <v>      -0.00000004       0.49923257       0.50592564 </v>
    <v>       0.50000004       0.49923248       0.50592567 </v>
    <v>       0.25000001       0.49923258       0.50592565 </v>
    <v>       0.74999999       0.49923254       0.50592565 </v>
   </varray>
  </structure>
  <varray name="forces" >
   <v>       0.00001397      -0.00106566       0.00138969 </v>
   <v>      -0.00000534      -0.00109186       0.00134062 </v>
   <v>       0.00001828      -0.00108032       0.00134723 </v>
   <v>      -0.00002898      -0.00107212       0.00135786 </v>
   <v>       0.00000988      -0.00109310       0.00134388 </v>
   <v>       0.00002523      -0.00104490       0.00134386 </v>
   <v>      -0.00002476      -0.00105826       0.00135389 </v>
   <v>      -0.00000947      -0.00107585       0.00134272 </v>
   <v>       0.00000831       0.00005234       0.00144582 </v>
   <v>       0.00001940       0.00005860       0.00141388 </v>
   <v>      -0.00001706       0.00005376       0.00142192 </v>
   <v>      -0.00001063       0.00005238       0.00143798 </v>
   <v>       0.00001133       0.00004401       0.00139774 </v>
   <v>      -0.00000247       0.00003124       0.00145397 </v>
   <v>       0.00000423       0.00003613       0.00143796 </v>
   <v>      -0.00001400       0.00004076       0.00141698 </v>
   <v>      -0.00000244       0.00105362      -0.00199045 </v>
   <v>      -0.00000479       0.00100981      -0.00197187 </v>
   <v>      -0.00000415       0.00104190      -0.00199243 </v>
   <v>       0.00001012       0.00101912      -0.00197804 </v>
   <v>      -0.00000952       0.00102010      -0.00197965 </v>
   <v>       0.00000918       0.00105390      -0.00194616 </v>
   <v>       0.00002416       0.00101683      -0.00195760 </v>
   <v>      -0.00002452       0.00102888      -0.00193096 </v>
   <v>      -0.00000426       0.00010320      -0.00162551 </v>
   <v>      -0.00000371       0.00008581      -0.00159167 </v>
   <v>      -0.00000015       0.00011430      -0.00162331 </v>
   <v>       0.00000773       0.00010917      -0.00161282 </v>
   <v>      -0.00000252       0.00008808      -0.00159521 </v>
   <v>       0.00000282       0.00008861      -0.00164889 </v>
   <v>       0.00001213       0.00009618      -0.00161037 </v>
   <v>      -0.00001291       0.00009384      -0.00163695 </v>
   <v>      -0.00000223       0.00143908      -0.00282761 </v>
   <v>       0.00000164       0.00135597      -0.00281192 </v>
   <v>      -0.00000241       0.00138365      -0.00281120 </v>
   <v>       0.00000479       0.00141069      -0.00281996 </v>
   <v>       0.00001220       0.00137591      -0.00281505 </v>
   <v>       0.00000444       0.00141608      -0.00282259 </v>
   <v>       0.00003275       0.00140892      -0.00282448 </v>
   <v>      -0.00004781       0.00138170      -0.00281601 </v>
   <v>      -0.00002774      -0.00149111       0.00363262 </v>
   <v>       0.00001998      -0.00150376       0.00362565 </v>
   <v>       0.00004402      -0.00150940       0.00363795 </v>
   <v>      -0.00003312      -0.00150601       0.00363548 </v>
   <v>       0.00000368      -0.00152471       0.00362718 </v>
   <v>      -0.00001029      -0.00145506       0.00360180 </v>
   <v>      -0.00001280      -0.00151245       0.00362169 </v>
   <v>       0.00001778      -0.00148000       0.00361236 </v>
  </varray>
  <varray name="stress" >
   <v>       0.43044988       0.00000195       0.00000039 </v>
   <v>       0.00000179      -0.13990394      -0.02036429 </v>
   <v>       0.00000047      -0.02036428      -0.12565625 </v>
  </varray>
  <energy>
   <i name="e_fr_energy">   -287.81510352 </i>
   <i name="e_wo_entrp">   -287.80794386 </i>
   <i name="e_0_energy">     -0.01431933 </i>
  </energy>
  <time name="totalsc">   34.48   34.53</time>
  <eigenvalues>
   <array>
    <dimension dim="1">band</dimension>
    <dimension dim="2">kpoint</dimension>
    <dimension dim="3">spin</dimension>
    <field>eigene</field>
    <field>occ</field>
    <set>
     <set comment="spin 1">
      <set comment="kpoint 1">
       <r>  -12.4022    1.0000 </r>
       <r>  -11.8935    1.0000 </r>
       <r>  -11.8925    1.0000 </r>
       <r>  -11.5767    1.0000 </r>
       <r>  -11.5727    1.0000 </r>
       <r>  -11.5091    1.0000 </r>
       <r>  -11.4304    1.0000 </r>
       <r>  -11.2541    1.0000 </r>
       <r>  -11.1725    1.0000 </r>
       <r>  -11.1626    1.0000 </r>
       <r>  -11.1539    1.0000 </r>
       <r>  -10.9740    1.0000 </r>
       <r>  -10.9661    1.0000 </r>
       <r>  -10.9246    1.0000 </r>
       <r>  -10.8036    1.0000 </r>
       <r>  -10.7266    1.0000 </r>
       <r>  -10.6962    1.0000 </r>
       <r>  -10.5089    1.0000 </r>
       <r>  -10.4782    1.0000 </r>
       <r>  -10.4689    1.0000 </r>
       <r>  -10.4451    1.0000 </r>
       <r>  -10.4379    1.0000 </r>
       <r>  -10.4243    1.0000 </r>
       <r>  -10.3873    1.0000 </r>
       <r>  -10.3538    1.0000 </r>
       <r>  -10.2198    1.0000 </r>
       <r>  -10.1500    1.0000 </r>
       <r>  -10.1410    1.0000 </r>
       <r>  -10.1381    1.0000 </r>
       <r>  -10.0356    1.0000 </r>
       <r>   -9.9993    1.0000 </r>
       <r>   -9.9846    1.0000 </r>
       <r>   -5.3200    1.0000 </r>
       <r>   -5.1922    1.0000 </r>
       <r>   -5.1786    1.0000 </r>
       <r>   -4.6816    1.0000 </r>
       <r>   -4.6607    1.0000 </r>
       <r>   -4.5180    1.0000 </r>
       <r>   -4.4941    1.0000 </r>
       <r>   -4.4926    1.0000 </r>
       <r>   -4.4616    1.0000 </r>
       <r>   -4.3627    1.0000 </r>
       <r>   -4.3028    1.0000 </r>
       <r>   -4.2508    1.0000 </r>
       <r>   -4.2329    1.0000 </r>
       <r>   -4.2109    1.0000 </r>
       <r>   -4.2002    1.0000 </r>
       <r>   -4.1878    1.0000 </r>
       <r>   -4.1766    1.0000 </r>
       <r>   -4.1343    1.0000 </r>
       <r>   -3.9760    1.0000 </r>
       <r>   -3.9260    1.0000 </r>
       <r>   -3.9002    1.0000 </r>
       <r>   -3.8932    1.0000 </r>
       <r>   -3.8840    1.0000 </r>
       <r>   -3.8545    1.0000 </r>
       <r>   -3.7370    1.0000 </r>
       <r>   -3.5162    1.0000 </r>
       <r>   -3.5015    1.0000 </r>
       <r>   -3.4974    1.0000 </r>
       <r>   -3.4935    1.0000 </r>
       <r>   -3.4879    1.0000 </r>
       <r>   -3.3747    1.0000 </r>
       <r>   -3.3420    1.0000 </r>
       <r>   -3.3272    1.0000 </r>
       <r>   -3.3175    1.0000 </r>
       <r>   -3.2501    1.0000 </r>
       <r>   -3.2447    1.0000 </r>
       <r>   -3.1960    1.0000 </r>
       <r>   -3.0399    1.0000 </r>
       <r>   -3.0049    1.0000 </r>
       <r>   -2.9482    1.0000 </r>
       <r>   -2.8995    1.0000 </r>
       <r>   -2.7299    1.0000 </r>
       <r>   -2.6588    1.0000 </r>
       <r>   -2.5960    1.0000 </r>
       <r>   -2.5797    1.0000 </r>
       <r>   -2.5656    1.0000 </r>
       <r>   -2.5605    1.0000 </r>
       <r>   -2.4873    1.0000 </r>
       <r>   -2.4375    1.0000 </r>
       <r>   -2.4130    1.0000 </r>
       <r>   -2.4112    1.0000 </r>
       <r>   -2.4049    1.0000 </r>
       <r>   -2.3314    1.0000 </r>
       <r>   -2.3279    1.0000 </r>
       <r>   -2.2951    1.0000 </r>
       <r>   -2.2162    1.0000 </r>
       <r>   -2.1698    1.0000 </r>
       <r>   -2.1083    1.0000 </r>
       <r>   -2.0948    1.0000 </r>
       <r>   -2.0307    1.0000 </r>
       <r>   -2.0143    1.0000 </r>
       <r>   -1.9759    1.0000 </r>
       <r>   -1.9528    1.0000 </r>
       <r>   -1.9075    1.0000 </r>
       <r>   -1.8683    1.0000 </r>
       <r>   -1.8359    1.0000 </r>
       <r>   -1.7401    1.0000 </r>
       <r>   -1.7097    1.0000 </r>
       <r>   -1.6118    1.0000 </r>
       <r>   -1.6062    1.0000 </r>
       <r>   -1.5641    1.0000 </r>
       <r>   -1.4932    1.0000 </r>
       <r>   -1.4292    1.0000 </r>
       <r>   -1.4169    1.0000 </r>
       <r>   -1.3426    1.0000 </r>
       <r>   -1.3369    1.0000 </r>
       <r>   -1.3308    1.0000 </r>
       <r>   -1.3228    1.0000 </r>
       <r>   -1.3127    1.0000 </r>
       <r>   -1.3082    1.0000 </r>
       <r>   -1.2889    1.0000 </r>
       <r>   -1.2771    1.0000 </r>
       <r>   -1.2020    1.0000 </r>
       <r>   -1.1349    1.0000 </r>
       <r>   -1.1134    1.0000 </r>
       <r>   -1.0869    1.0000 </r>
       <r>   -1.0641    1.0000 </r>
       <r>   -0.9832    1.0000 </r>
       <r>   -0.9624    1.0000 </r>
       <r>   -0.9410    1.0000 </r>
       <r>   -0.9300    1.0000 </r>
       <r>   -0.9086    1.0000 </r>
       <r>   -0.8858    1.0000 </r>
       <r>   -0.8679    1.0000 </r>
       <r>   -0.7892    1.0000 </r>
       <r>   -0.7104    1.0000 </r>
       <r>   -0.6579    1.0000 </r>
       <r>   -0.6443    1.0000 </r>
       <r>   -0.5792    1.0000 </r>
       <r>   -0.5272    1.0000 </r>
       <r>   -0.4705    1.0000 </r>
       <r>   -0.4447    1.0000 </r>
       <r>   -0.4224    1.0000 </r>
       <r>   -0.3880    1.0000 </r>
       <r>   -0.3339    1.0000 </r>
       <r>   -0.2264    1.0000 </r>
       <r>   -0.1803    1.0000 </r>
       <r>   -0.1635    1.0000 </r>
       <r>   -0.0875    1.0000 </r>
       <r>    0.0193    1.0000 </r>
       <r>    0.0513    1.0000 </r>
       <r>    0.4708    0.2757 </r>
       <r>    0.5242    0.0176 </r>
       <r>    0.6046    0.0000 </r>
       <r>    0.6871    0.0000 </r>
       <r>    0.7710    0.0000 </r>
       <r>    0.8691    0.0000 </r>
       <r>    0.9332    0.0000 </r>
       <r>    1.1119    0.0000 </r>
       <r>    1.2755    0.0000 </r>
       <r>    1.3853    0.0000 </r>
       <r>    1.4314    0.0000 </r>
       <r>    1.4567    0.0000 </r>
       <r>    1.4899    0.0000 </r>
       <r>    1.5210    0.0000 </r>
       <r>    1.5282    0.0000 </r>
       <r>    1.5626    0.0000 </r>
       <r>    1.5739    0.0000 </r>
       <r>    1.7995    0.0000 </r>
       <r>    1.8066    0.0000 </r>
       <r>    1.8140    0.0000 </r>
       <r>    1.8568    0.0000 </r>
       <r>    1.8692    0.0000 </r>
       <r>    1.8785    0.0000 </r>
       <r>    1.9950    0.0000 </r>
       <r>    2.0278    0.0000 </r>
       <r>    2.0708    0.0000 </r>
       <r>    2.1344    0.0000 </r>
       <r>    2.1863    0.0000 </r>
       <r>    2.1910    0.0000 </r>
       <r>    2.2158    0.0000 </r>
       <r>    2.2684    0.0000 </r>
       <r>    2.2935    0.0000 </r>
       <r>    2.3203    0.0000 </r>
      </set>
      <set comment="kpoint 2">
       <r>  -12.3149    1.0000 </r>
       <r>  -12.1433    1.0000 </r>
       <r>  -11.8122    1.0000 </r>
       <r>  -11.6553    1.0000 </r>
       <r>  -11.5002    1.0000 </r>
       <r>  -11.4500    1.0000 </r>
       <r>  -11.3600    1.0000 </r>
       <r>  -11.3354    1.0000 </r>
       <r>  -11.2116    1.0000 </r>
       <r>  -11.2027    1.0000 </r>
       <r>  -11.1039    1.0000 </r>
       <r>  -10.8600    1.0000 </r>
       <r>  -10.8314    1.0000 </r>
       <r>  -10.7594    1.0000 </r>
       <r>  -10.6803    1.0000 </r>
       <r>  -10.6671    1.0000 </r>
       <r>  -10.6405    1.0000 </r>
       <r>  -10.6353    1.0000 </r>
       <r>  -10.6130    1.0000 </r>
       <r>  -10.5934    1.0000 </r>
       <r>  -10.5584    1.0000 </r>
       <r>  -10.5339    1.0000 </r>
       <r>  -10.5065    1.0000 </r>
       <r>  -10.3879    1.0000 </r>
       <r>  -10.3873    1.0000 </r>
       <r>  -10.2809    1.0000 </r>
       <r>  -10.2457    1.0000 </r>
       <r>  -10.1798    1.0000 </r>
       <r>  -10.0637    1.0000 </r>
       <r>   -9.9672    1.0000 </r>
       <r>   -9.9099    1.0000 </r>
       <r>   -9.9037    1.0000 </r>
       <r>   -5.1486    1.0000 </r>
       <r>   -5.0866    1.0000 </r>
       <r>   -4.9125    1.0000 </r>
       <r>   -4.8026    1.0000 </r>
       <r>   -4.7244    1.0000 </r>
       <r>   -4.6399    1.0000 </r>
       <r>   -4.4565    1.0000 </r>
       <r>   -4.4138    1.0000 </r>
       <r>   -4.3940    1.0000 </r>
       <r>   -4.3669    1.0000 </r>
       <r>   -4.3481    1.0000 </r>
       <r>   -4.2742    1.0000 </r>
       <r>   -4.2591    1.0000 </r>
       <r>   -4.2537    1.0000 </r>
       <r>   -4.2449    1.0000 </r>
       <r>   -4.2171    1.0000 </r>
       <r>   -4.2162    1.0000 </r>
       <r>   -4.1652    1.0000 </r>
       <r>   -4.1431    1.0000 </r>
       <r>   -4.1263    1.0000 </r>
       <r>   -4.1168    1.0000 </r>
       <r>   -3.9985    1.0000 </r>
       <r>   -3.9348    1.0000 </r>
       <r>   -3.8490    1.0000 </r>
       <r>   -3.7274    1.0000 </r>
       <r>   -3.6987    1.0000 </r>
       <r>   -3.6330    1.0000 </r>
       <r>   -3.4579    1.0000 </r>
       <r>   -3.4024    1.0000 </r>
       <r>   -3.3772    1.0000 </r>
       <r>   -3.2939    1.0000 </r>
       <r>   -3.2210    1.0000 </r>
       <r>   -3.1903    1.0000 </r>
       <r>   -3.1588    1.0000 </r>
       <r>   -3.0797    1.0000 </r>
       <r>   -3.0109    1.0000 </r>
       <r>   -3.0035    1.0000 </r>
       <r>   -2.9846    1.0000 </r>
       <r>   -2.9443    1.0000 </r>
       <r>   -2.9393    1.0000 </r>
       <r>   -2.9070    1.0000 </r>
       <r>   -2.7632    1.0000 </r>
       <r>   -2.7522    1.0000 </r>
       <r>   -2.7237    1.0000 </r>
       <r>   -2.7166    1.0000 </r>
       <r>   -2.6447    1.0000 </r>
       <r>   -2.6041    1.0000 </r>
       <r>   -2.6011    1.0000 </r>
       <r>   -2.5630    1.0000 </r>
       <r>   -2.4949    1.0000 </r>
       <r>   -2.4700    1.0000 </r>
       <r>   -2.4617    1.0000 </r>
       <r>   -2.3213    1.0000 </r>
       <r>   -2.3077    1.0000 </r>
       <r>   -2.2857    1.0000 </r>
       <r>   -2.2262    1.0000 </r>
       <r>   -2.2090    1.0000 </r>
       <r>   -2.1818    1.0000 </r>
       <r>   -2.1490    1.0000 </r>
       <r>   -2.0544    1.0000 </r>
       <r>   -2.0449    1.0000 </r>
       <r>   -2.0075    1.0000 </r>
       <r>   -1.9526    1.0000 </r>
       <r>   -1.8434    1.0000 </r>
       <r>   -1.7802    1.0000 </r>
       <r>   -1.6876    1.0000 </r>
       <r>   -1.6866    1.0000 </r>
       <r>   -1.6661    1.0000 </r>
       <r>   -1.5787    1.0000 </r>
       <r>   -1.5260    1.0000 </r>
       <r>   -1.5187    1.0000 </r>
       <r>   -1.4414    1.0000 </r>
       <r>   -1.4125    1.0000 </r>
       <r>   -1.3939    1.0000 </r>
       <r>   -1.3766    1.0000 </r>
       <r>   -1.3633    1.0000 </r>
       <r>   -1.3581    1.0000 </r>
       <r>   -1.3558    1.0000 </r>
       <r>   -1.3306    1.0000 </r>
       <r>   -1.2949    1.0000 </r>
       <r>   -1.2682    1.0000 </r>
       <r>   -1.2650    1.0000 </r>
       <r>   -1.2592    1.0000 </r>
       <r>   -1.1301    1.0000 </r>
       <r>   -1.0559    1.0000 </r>
       <r>   -1.0542    1.0000 </r>
       <r>   -1.0431    1.0000 </r>
       <r>   -0.9605    1.0000 </r>
       <r>   -0.9439    1.0000 </r>
       <r>   -0.8913    1.0000 </r>
       <r>   -0.8671    1.0000 </r>
       <r>   -0.8646    1.0000 </r>
       <r>   -0.8083    1.0000 </r>
       <r>   -0.7590    1.0000 </r>
       <r>   -0.7050    1.0000 </r>
       <r>   -0.6931    1.0000 </r>
       <r>   -0.6857    1.0000 </r>
       <r>   -0.6304    1.0000 </r>
       <r>   -0.5650    1.0000 </r>
       <r>   -0.5214    1.0000 </r>
       <r>   -0.5204    1.0000 </r>
       <r>   -0.4979    1.0000 </r>
       <r>   -0.4761    1.0000 </r>
       <r>   -0.3652    1.0000 </r>
       <r>   -0.3563    1.0000 </r>
       <r>   -0.2864    1.0000 </r>
       <r>   -0.2019    1.0000 </r>
       <r>   -0.1401    1.0000 </r>
       <r>   -0.0485    1.0000 </r>
       <r>    0.0315    1.0000 </r>
       <r>    0.0445    1.0000 </r>
       <r>    0.3897    0.9552 </r>
       <r>    0.4245    0.7623 </r>
       <r>    0.6236    0.0000 </r>
       <r>    0.7299    0.0000 </r>
       <r>    0.8125    0.0000 </r>
       <r>    0.9722    0.0000 </r>
       <r>    0.9776    0.0000 </r>
       <r>    1.0521    0.0000 </r>
       <r>    1.1501    0.0000 </r>
       <r>    1.2579    0.0000 </r>
       <r>    1.2726    0.0000 </r>
       <r>    1.4117    0.0000 </r>
       <r>    1.4308    0.0000 </r>
       <r>    1.5079    0.0000 </r>
       <r>    1.5263    0.0000 </r>
       <r>    1.6184    0.0000 </r>
       <r>    1.6990    0.0000 </r>
       <r>    1.7876    0.0000 </r>
       <r>    1.8471    0.0000 </r>
       <r>    1.8563    0.0000 </r>
       <r>    1.8636    0.0000 </r>
       <r>    1.8969    0.0000 </r>
       <r>    1.9832    0.0000 </r>
       <r>    1.9996    0.0000 </r>
       <r>    2.0133    0.0000 </r>
       <r>    2.1454    0.0000 </r>
       <r>    2.1720    0.0000 </r>
       <r>    2.1833    0.0000 </r>
       <r>    2.1939    0.0000 </r>
       <r>    2.2140    0.0000 </r>
       <r>    2.2444    0.0000 </r>
       <r>    2.2965    0.0000 </r>
       <r>    2.3903    0.0000 </r>
      </set>
      <set comment="kpoint 3">
       <r>  -12.3149    1.0000 </r>
       <r>  -12.1433    1.0000 </r>
       <r>  -11.8122    1.0000 </r>
       <r>  -11.6553    1.0000 </r>
       <r>  -11.5002    1.0000 </r>
       <r>  -11.4500    1.0000 </r>
       <r>  -11.3600    1.0000 </r>
       <r>  -11.3354    1.0000 </r>
       <r>  -11.2116    1.0000 </r>
       <r>  -11.2027    1.0000 </r>
       <r>  -11.1039    1.0000 </r>
       <r>  -10.8600    1.0000 </r>
       <r>  -10.8314    1.0000 </r>
       <r>  -10.7594    1.0000 </r>
       <r>  -10.6803    1.0000 </r>
       <r>  -10.6671    1.0000 </r>
       <r>  -10.6405    1.0000 </r>
       <r>  -10.6353    1.0000 </r>
       <r>  -10.6130    1.0000 </r>
       <r>  -10.5934    1.0000 </r>
       <r>  -10.5584    1.0000 </r>
       <r>  -10.5339    1.0000 </r>
       <r>  -10.5065    1.0000 </r>
       <r>  -10.3879    1.0000 </r>
       <r>  -10.3873    1.0000 </r>
       <r>  -10.2809    1.0000 </r>
       <r>  -10.2457    1.0000 </r>
       <r>  -10.1798    1.0000 </r>
       <r>  -10.0637    1.0000 </r>
       <r>   -9.9672    1.0000 </r>
       <r>   -9.9099    1.0000 </r>
       <r>   -9.9037    1.0000 </r>
       <r>   -5.1486    1.0000 </r>
       <r>   -5.0866    1.0000 </r>
       <r>   -4.9125    1.0000 </r>
       <r>   -4.8026    1.0000 </r>
       <r>   -4.7244    1.0000 </r>
       <r>   -4.6399    1.0000 </r>
       <r>   -4.4565    1.0000 </r>
       <r>   -4.4138    1.0000 </r>
       <r>   -4.3940    1.0000 </r>
       <r>   -4.3669    1.0000 </r>
       <r>   -4.3481    1.0000 </r>
       <r>   -4.2742    1.0000 </r>
       <r>   -4.2591    1.0000 </r>
       <r>   -4.2537    1.0000 </r>
       <r>   -4.2449    1.0000 </r>
       <r>   -4.2171    1.0000 </r>
       <r>   -4.2162    1.0000 </r>
       <r>   -4.1652    1.0000 </r>
       <r>   -4.1431    1.0000 </r>
       <r>   -4.1263    1.0000 </r>
       <r>   -4.1168    1.0000 </r>
       <r>   -3.9985    1.0000 </r>
       <r>   -3.9348    1.0000 </r>
       <r>   -3.8490    1.0000 </r>
       <r>   -3.7274    1.0000 </r>
       <r>   -3.6987    1.0000 </r>
       <r>   -3.6330    1.0000 </r>
       <r>   -3.4579    1.0000 </r>
       <r>   -3.4024    1.0000 </r>
       <r>   -3.3772    1.0000 </r>
       <r>   -3.2939    1.0000 </r>
       <r>   -3.2210    1.0000 </r>
       <r>   -3.1903    1.0000 </r>
       <r>   -3.1588    1.0000 </r>
       <r>   -3.0797    1.0000 </r>
       <r>   -3.0109    1.0000 </r>
       <r>   -3.0035    1.0000 </r>
       <r>   -2.9846    1.0000 </r>
       <r>   -2.9443    1.0000 </r>
       <r>   -2.9393    1.0000 </r>
       <r>   -2.9070    1.0000 </r>
       <r>   -2.7632    1.0000 </r>
       <r>   -2.7522    1.0000 </r>
       <r>   -2.7237    1.0000 </r>
       <r>   -2.7166    1.0000 </r>
       <r>   -2.6447    1.0000 </r>
       <r>   -2.6041    1.0000 </r>
       <r>   -2.6011    1.0000 </r>
       <r>   -2.5630    1.0000 </r>
       <r>   -2.4949    1.0000 </r>
       <r>   -2.4700    1.0000 </r>
       <r>   -2.4617    1.0000 </r>
       <r>   -2.3213    1.0000 </r>
       <r>   -2.3077    1.0000 </r>
       <r>   -2.2857    1.0000 </r>
       <r>   -2.2262    1.0000 </r>
       <r>   -2.2090    1.0000 </r>
       <r>   -2.1818    1.0000 </r>
       <r>   -2.1490    1.0000 </r>
       <r>   -2.0544    1.0000 </r>
       <r>   -2.0449    1.0000 </r>
       <r>   -2.0075    1.0000 </r>
       <r>   -1.9526    1.0000 </r>
       <r>   -1.8434    1.0000 </r>
       <r>   -1.7802    1.0000 </r>
       <r>   -1.6876    1.0000 </r>
       <r>   -1.6866    1.0000 </r>
       <r>   -1.6661    1.0000 </r>
       <r>   -1.5787    1.0000 </r>
       <r>   -1.5260    1.0000 </r>
       <r>   -1.5187    1.0000 </r>
       <r>   -1.4414    1.0000 </r>
       <r>   -1.4125    1.0000 </r>
       <r>   -1.3939    1.0000 </r>
       <r>   -1.3766    1.0000 </r>
       <r>   -1.3633    1.0000 </r>
       <r>   -1.3581    1.0000 </r>
       <r>   -1.3558    1.0000 </r>
       <r>   -1.3306    1.0000 </r>
       <r>   -1.2949    1.0000 </r>
       <r>   -1.2682    1.0000 </r>
       <r>   -1.2650    1.0000 </r>
       <r>   -1.2592    1.0000 </r>
       <r>   -1.1301    1.0000 </r>
       <r>   -1.0559    1.0000 </r>
       <r>   -1.0542    1.0000 </r>
       <r>   -1.0431    1.0000 </r>
       <r>   -0.9605    1.0000 </r>
       <r>   -0.9439    1.0000 </r>
       <r>   -0.8913    1.0000 </r>
       <r>   -0.8671    1.0000 </r>
       <r>   -0.8646    1.0000 </r>
       <r>   -0.8083    1.0000 </r>
       <r>   -0.7590    1.0000 </r>
       <r>   -0.7050    1.0000 </r>
       <r>   -0.6931    1.0000 </r>
       <r>   -0.6857    1.0000 </r>
       <r>   -0.6304    1.0000 </r>
       <r>   -0.5650    1.0000 </r>
       <r>   -0.5214    1.0000 </r>
       <r>   -0.5204    1.0000 </r>
       <r>   -0.4979    1.0000 </r>
       <r>   -0.4761    1.0000 </r>
       <r>   -0.3652    1.0000 </r>
       <r>   -0.3563    1.0000 </r>
       <r>   -0.2864    1.0000 </r>
       <r>   -0.2019    1.0000 </r>
       <r>   -0.1401    1.0000 </r>
       <r>   -0.0485    1.0000 </r>
       <r>    0.0315    1.0000 </r>
       <r>    0.0445    1.0000 </r>
       <r>    0.3897    0.9552 </r>
       <r>    0.4245    0.7623 </r>
       <r>    0.6236    0.0000 </r>
       <r>    0.7299    0.0000 </r>
       <r>    0.8125    0.0000 </r>
       <r>    0.9722    0.0000 </r>
       <r>    0.9776    0.0000 </r>
       <r>    1.0521    0.0000 </r>
       <r>    1.1501    0.0000 </r>
       <r>    1.2579    0.0000 </r>
       <r>    1.2726    0.0000 </r>
       <r>    1.4117    0.0000 </r>
       <r>    1.4308    0.0000 </r>
       <r>    1.5079    0.0000 </r>
       <r>    1.5263    0.0000 </r>
       <r>    1.6184    0.0000 </r>
       <r>    1.6990    0.0000 </r>
       <r>    1.7876    0.0000 </r>
       <r>    1.8471    0.0000 </r>
       <r>    1.8563    0.0000 </r>
       <r>    1.8636    0.0000 </r>
       <r>    1.8969    0.0000 </r>
       <r>    1.9832    0.0000 </r>
       <r>    1.9996    0.0000 </r>
       <r>    2.0133    0.0000 </r>
       <r>    2.1454    0.0000 </r>
       <r>    2.1720    0.0000 </r>
       <r>    2.1833    0.0000 </r>
       <r>    2.1939    0.0000 </r>
       <r>    2.2140    0.0000 </r>
       <r>    2.2444    0.0000 </r>
       <r>    2.2964    0.0000 </r>
       <r>    2.3852    0.0000 </r>
      </set>
      <set comment="kpoint 4">
       <r>  -12.4022    1.0000 </r>
       <r>  -11.8935    1.0000 </r>
       <r>  -11.8925    1.0000 </r>
       <r>  -11.5767    1.0000 </r>
       <r>  -11.5727    1.0000 </r>
       <r>  -11.5091    1.0000 </r>
       <r>  -11.4304    1.0000 </r>
       <r>  -11.2541    1.0000 </r>
       <r>  -11.1725    1.0000 </r>
       <r>  -11.1626    1.0000 </r>
       <r>  -11.1539    1.0000 </r>
       <r>  -10.9740    1.0000 </r>
       <r>  -10.9661    1.0000 </r>
       <r>  -10.9246    1.0000 </r>
       <r>  -10.8036    1.0000 </r>
       <r>  -10.7266    1.0000 </r>
       <r>  -10.6962    1.0000 </r>
       <r>  -10.5089    1.0000 </r>
       <r>  -10.4782    1.0000 </r>
       <r>  -10.4689    1.0000 </r>
       <r>  -10.4451    1.0000 </r>
       <r>  -10.4379    1.0000 </r>
       <r>  -10.4243    1.0000 </r>
       <r>  -10.3873    1.0000 </r>
       <r>  -10.3538    1.0000 </r>
       <r>  -10.2198    1.0000 </r>
       <r>  -10.1500    1.0000 </r>
       <r>  -10.1410    1.0000 </r>
       <r>  -10.1381    1.0000 </r>
       <r>  -10.0356    1.0000 </r>
       <r>   -9.9993    1.0000 </r>
       <r>   -9.9846    1.0000 </r>
       <r>   -5.3200    1.0000 </r>
       <r>   -5.1922    1.0000 </r>
       <r>   -5.1786    1.0000 </r>
       <r>   -4.6816    1.0000 </r>
       <r>   -4.6607    1.0000 </r>
       <r>   -4.5180    1.0000 </r>
       <r>   -4.4941    1.0000 </r>
       <r>   -4.4926    1.0000 </r>
       <r>   -4.4616    1.0000 </r>
       <r>   -4.3627    1.0000 </r>
       <r>   -4.3028    1.0000 </r>
       <r>   -4.2508    1.0000 </r>
       <r>   -4.2329    1.0000 </r>
       <r>   -4.2109    1.0000 </r>
       <r>   -4.2002    1.0000 </r>
       <r>   -4.1878    1.0000 </r>
       <r>   -4.1766    1.0000 </r>
       <r>   -4.1343    1.0000 </r>
       <r>   -3.9760    1.0000 </r>
       <r>   -3.9260    1.0000 </r>
       <r>   -3.9002    1.0000 </r>
       <r>   -3.8932    1.0000 </r>
       <r>   -3.8840    1.0000 </r>
       <r>   -3.8545    1.0000 </r>
       <r>   -3.7370    1.0000 </r>
       <r>   -3.5162    1.0000 </r>
       <r>   -3.5015    1.0000 </r>
       <r>   -3.4974    1.0000 </r>
       <r>   -3.4935    1.0000 </r>
       <r>   -3.4879    1.0000 </r>
       <r>   -3.3747    1.0000 </r>
       <r>   -3.3420    1.0000 </r>
       <r>   -3.3272    1.0000 </r>
       <r>   -3.3175    1.0000 </r>
       <r>   -3.2501    1.0000 </r>
       <r>   -3.2447    1.0000 </r>
       <r>   -3.1960    1.0000 </r>
       <r>   -3.0399    1.0000 </r>
       <r>   -3.0049    1.0000 </r>
       <r>   -2.9482    1.0000 </r>
       <r>   -2.8995    1.0000 </r>
       <r>   -2.7299    1.0000 </r>
       <r>   -2.6588    1.0000 </r>
       <r>   -2.5960    1.0000 </r>
       <r>   -2.5797    1.0000 </r>
       <r>   -2.5656    1.0000 </r>
       <r>   -2.5605    1.0000 </r>
       <r>   -2.4873    1.0000 </r>
       <r>   -2.4375    1.0000 </r>
       <r>   -2.4130    1.0000 </r>
       <r>   -2.4112    1.0000 </r>
       <r>   -2.4049    1.0000 </r>
       <r>   -2.3314    1.0000 </r>
       <r>   -2.3279    1.0000 </r>
       <r>   -2.2951    1.0000 </r>
       <r>   -2.2162    1.0000 </r>
       <r>   -2.1698    1.0000 </r>
       <r>   -2.1083    1.0000 </r>
       <r>   -2.0948    1.0000 </r>
       <r>   -2.0307    1.0000 </r>
       <r>   -2.0143    1.0000 </r>
       <r>   -1.9759    1.0000 </r>
       <r>   -1.9528    1.0000 </r>
       <r>   -1.9075    1.0000 </r>
       <r>   -1.8683    1.0000 </r>
       <r>   -1.8359    1.0000 </r>
       <r>   -1.7401    1.0000 </r>
       <r>   -1.7097    1.0000 </r>
       <r>   -1.6118    1.0000 </r>
       <r>   -1.6062    1.0000 </r>
       <r>   -1.5641    1.0000 </r>
       <r>   -1.4932    1.0000 </r>
       <r>   -1.4292    1.0000 </r>
       <r>   -1.4169    1.0000 </r>
       <r>   -1.3426    1.0000 </r>
       <r>   -1.3369    1.0000 </r>
       <r>   -1.3308    1.0000 </r>
       <r>   -1.3228    1.0000 </r>
       <r>   -1.3127    1.0000 </r>
       <r>   -1.3082    1.0000 </r>
       <r>   -1.2889    1.0000 </r>
       <r>   -1.2771    1.0000 </r>
       <r>   -1.2020    1.0000 </r>
       <r>   -1.1349    1.0000 </r>
       <r>   -1.1134    1.0000 </r>
       <r>   -1.0869    1.0000 </r>
       <r>   -1.0641    1.0000 </r>
       <r>   -0.9832    1.0000 </r>
       <r>   -0.9624    1.0000 </r>
       <r>   -0.9410    1.0000 </r>
       <r>   -0.9300    1.0000 </r>
       <r>   -0.9086    1.0000 </r>
       <r>   -0.8858    1.0000 </r>
       <r>   -0.8679    1.0000 </r>
       <r>   -0.7892    1.0000 </r>
       <r>   -0.7104    1.0000 </r>
       <r>   -0.6579    1.0000 </r>
       <r>   -0.6443    1.0000 </r>
       <r>   -0.5792    1.0000 </r>
       <r>   -0.5272    1.0000 </r>
       <r>   -0.4705    1.0000 </r>
       <r>   -0.4447    1.0000 </r>
       <r>   -0.4224    1.0000 </r>
       <r>   -0.3880    1.0000 </r>
       <r>   -0.3339    1.0000 </r>
       <r>   -0.2264    1.0000 </r>
       <r>   -0.1803    1.0000 </r>
       <r>   -0.1635    1.0000 </r>
       <r>   -0.0875    1.0000 </r>
       <r>    0.0193    1.0000 </r>
       <r>    0.0513    1.0000 </r>
       <r>    0.4708    0.2757 </r>
       <r>    0.5242    0.0176 </r>
       <r>    0.6046    0.0000 </r>
       <r>    0.6871    0.0000 </r>
       <r>    0.7710    0.0000 </r>
       <r>    0.8691    0.0000 </r>
       <r>    0.9332    0.0000 </r>
       <r>    1.1119    0.0000 </r>
       <r>    1.2755    0.0000 </r>
       <r>    1.3853    0.0000 </r>
       <r>    1.4314    0.0000 </r>
       <r>    1.4567    0.0000 </r>
       <r>    1.4899    0.0000 </r>
       <r>    1.5210    0.0000 </r>
       <r>    1.5282    0.0000 </r>
       <r>    1.5626    0.0000 </r>
       <r>    1.5739    0.0000 </r>
       <r>    1.7995    0.0000 </r>
       <r>    1.8066    0.0000 </r>
       <r>    1.8140    0.0000 </r>
       <r>    1.8568    0.0000 </r>
       <r>    1.8692    0.0000 </r>
       <r>    1.8785    0.0000 </r>
       <r>    1.9950    0.0000 </r>
       <r>    2.0278    0.0000 </r>
       <r>    2.0708    0.0000 </r>
       <r>    2.1344    0.0000 </r>
       <r>    2.1863    0.0000 </r>
       <r>    2.1910    0.0000 </r>
       <r>    2.2158    0.0000 </r>
       <r>    2.2685    0.0000 </r>
       <r>    2.2924    0.0000 </r>
       <r>    2.3295    0.0000 </r>
      </set>
      <set comment="kpoint 5">
       <r>  -12.3103    1.0000 </r>
       <r>  -12.1335    1.0000 </r>
       <r>  -11.8102    1.0000 </r>
       <r>  -11.6500    1.0000 </r>
       <r>  -11.5006    1.0000 </r>
       <r>  -11.4673    1.0000 </r>
       <r>  -11.4184    1.0000 </r>
       <r>  -11.3547    1.0000 </r>
       <r>  -11.1686    1.0000 </r>
[...]
       <r>    0.8295    0.0000 </r>
       <r>    0.9055    0.0000 </r>
       <r>    1.2397    0.0000 </r>
       <r>    1.3398    0.0000 </r>
       <r>    1.4118    0.0000 </r>
       <r>    1.4141    0.0000 </r>
       <r>    1.4488    0.0000 </r>
       <r>    1.4699    0.0000 </r>
       <r>    1.5380    0.0000 </r>
       <r>    1.5545    0.0000 </r>
       <r>    1.5567    0.0000 </r>
       <r>    1.5794    0.0000 </r>
       <r>    1.7777    0.0000 </r>
       <r>    1.7996    0.0000 </r>
       <r>    1.8435    0.0000 </r>
       <r>    1.8840    0.0000 </r>
       <r>    1.9037    0.0000 </r>
       <r>    1.9428    0.0000 </r>
       <r>    1.9922    0.0000 </r>
       <r>    1.9982    0.0000 </r>
       <r>    2.0415    0.0000 </r>
       <r>    2.0974    0.0000 </r>
       <r>    2.0975    0.0000 </r>
       <r>    2.1110    0.0000 </r>
       <r>    2.1441    0.0000 </r>
       <r>    2.1906    0.0000 </r>
       <r>    2.2460    0.0000 </r>
       <r>    2.3513    0.0000 </r>
      </set>
     </set>
    </set>
   </array>
  </eigenvalues>
  <separator name="orbital magnetization" >
   <v name="MAGDIPOLOUT">      0.00000000      0.00000000      0.00000000</v>
  </separator>
  <dos>
   <i name="efermi">      0.44975436 </i>
   <total>
    <array>
     <dimension dim="1">gridpoints</dimension>
     <dimension dim="2">spin</dimension>
     <field>energy</field>
     <field>total</field>
     <field>integrated</field>
     <set>
      <set comment="spin 1">
       <r>   -13.1419     0.0000     0.0000 </r>
       <r>   -13.0876     0.0000     0.0000 </r>
       <r>   -13.0334     0.0000     0.0000 </r>
       <r>   -12.9792     0.0000     0.0000 </r>
       <r>   -12.9249     0.0000     0.0000 </r>
       <r>   -12.8707     0.0000     0.0000 </r>
       <r>   -12.8164     0.0000     0.0000 </r>
       <r>   -12.7622     0.0000     0.0000 </r>
       <r>   -12.7079     0.0000     0.0000 </r>
       <r>   -12.6537     0.0000     0.0000 </r>
       <r>   -12.5994     0.0000     0.0000 </r>
       <r>   -12.5452     0.0002     0.0000 </r>
       <r>   -12.4909     0.0553     0.0030 </r>
       <r>   -12.4367     1.4644     0.0825 </r>
       <r>   -12.3825     5.4880     0.3802 </r>
       <r>   -12.3282     8.1418     0.8218 </r>
       <r>   -12.2740    10.7065     1.4026 </r>
       <r>   -12.2197     7.0136     1.7831 </r>
       <r>   -12.1655     7.7022     2.2009 </r>
       <r>   -12.1112    11.5224     2.8259 </r>
       <r>   -12.0570    11.3366     3.4409 </r>
       <r>   -12.0027     8.8660     3.9218 </r>
       <r>   -11.9485     2.8513     4.0765 </r>
       <r>   -11.8942    11.5226     4.7015 </r>
       <r>   -11.8400    16.4409     5.5934 </r>
       <r>   -11.7857    12.3210     6.2617 </r>
       <r>   -11.7315     4.4097     6.5010 </r>
       <r>   -11.6773     4.5137     6.7458 </r>
       <r>   -11.6230    11.7930     7.3855 </r>
       <r>   -11.5688    13.3286     8.1085 </r>
       <r>   -11.5145    18.0633     9.0884 </r>
       <r>   -11.4603    26.1827    10.5087 </r>
       <r>   -11.4060    27.8539    12.0197 </r>
       <r>   -11.3518    26.9544    13.4818 </r>
       <r>   -11.2975    22.0861    14.6799 </r>
       <r>   -11.2433    18.5602    15.6867 </r>
       <r>   -11.1890    28.5092    17.2332 </r>
       <r>   -11.1348    39.3971    19.3703 </r>
       <r>   -11.0806    29.3822    20.9642 </r>
       <r>   -11.0263    16.4936    21.8589 </r>
       <r>   -10.9721    20.6543    22.9793 </r>
       <r>   -10.9178    26.2382    24.4026 </r>
       <r>   -10.8636    28.6785    25.9583 </r>
       <r>   -10.8093    30.5468    27.6153 </r>
       <r>   -10.7551    28.9094    29.1835 </r>
       <r>   -10.7008    37.2817    31.2059 </r>
       <r>   -10.6466    44.6296    33.6269 </r>
       <r>   -10.5923    41.4765    35.8768 </r>
       <r>   -10.5381    41.0482    38.1035 </r>
       <r>   -10.4839    63.8019    41.5645 </r>
       <r>   -10.4296    69.1215    45.3140 </r>
       <r>   -10.3754    50.6591    48.0621 </r>
       <r>   -10.3211    35.9397    50.0116 </r>
       <r>   -10.2669    27.2492    51.4898 </r>
       <r>   -10.2126    26.8160    52.9444 </r>
       <r>   -10.1584    36.3398    54.9157 </r>
       <r>   -10.1041    34.2147    56.7717 </r>
       <r>   -10.0499    22.8033    58.0087 </r>
       <r>    -9.9956    36.1356    59.9689 </r>
       <r>    -9.9414    38.6039    62.0630 </r>
       <r>    -9.8871    27.5000    63.5548 </r>
       <r>    -9.8329     7.7797    63.9768 </r>
       <r>    -9.7787     0.4249    63.9998 </r>
       <r>    -9.7244     0.0032    64.0000 </r>
       <r>    -9.6702     0.0000    64.0000 </r>
       <r>    -9.6159     0.0000    64.0000 </r>
       <r>    -9.5617     0.0000    64.0000 </r>
       <r>    -9.5074     0.0000    64.0000 </r>
       <r>    -9.4532     0.0000    64.0000 </r>
       <r>    -9.3989     0.0000    64.0000 </r>
       <r>    -9.3447     0.0000    64.0000 </r>
       <r>    -9.2904     0.0000    64.0000 </r>
       <r>    -9.2362     0.0000    64.0000 </r>
       <r>    -9.1820     0.0000    64.0000 </r>
       <r>    -9.1277     0.0000    64.0000 </r>
       <r>    -9.0735     0.0000    64.0000 </r>
       <r>    -9.0192     0.0000    64.0000 </r>
       <r>    -8.9650     0.0000    64.0000 </r>
       <r>    -8.9107     0.0000    64.0000 </r>
       <r>    -8.8565     0.0000    64.0000 </r>
       <r>    -8.8022     0.0000    64.0000 </r>
       <r>    -8.7480     0.0000    64.0000 </r>
       <r>    -8.6937     0.0000    64.0000 </r>
       <r>    -8.6395     0.0000    64.0000 </r>
       <r>    -8.5852     0.0000    64.0000 </r>
       <r>    -8.5310     0.0000    64.0000 </r>
       <r>    -8.4768     0.0000    64.0000 </r>
       <r>    -8.4225     0.0000    64.0000 </r>
       <r>    -8.3683     0.0000    64.0000 </r>
       <r>    -8.3140     0.0000    64.0000 </r>
       <r>    -8.2598     0.0000    64.0000 </r>
       <r>    -8.2055     0.0000    64.0000 </r>
       <r>    -8.1513     0.0000    64.0000 </r>
       <r>    -8.0970     0.0000    64.0000 </r>
       <r>    -8.0428     0.0000    64.0000 </r>
       <r>    -7.9885     0.0000    64.0000 </r>
       <r>    -7.9343     0.0000    64.0000 </r>
       <r>    -7.8801     0.0000    64.0000 </r>
       <r>    -7.8258     0.0000    64.0000 </r>
       <r>    -7.7716     0.0000    64.0000 </r>
       <r>    -7.7173     0.0000    64.0000 </r>
       <r>    -7.6631     0.0000    64.0000 </r>
       <r>    -7.6088     0.0000    64.0000 </r>
       <r>    -7.5546     0.0000    64.0000 </r>
       <r>    -7.5003     0.0000    64.0000 </r>
       <r>    -7.4461     0.0000    64.0000 </r>
       <r>    -7.3918     0.0000    64.0000 </r>
       <r>    -7.3376     0.0000    64.0000 </r>
       <r>    -7.2834     0.0000    64.0000 </r>
       <r>    -7.2291     0.0000    64.0000 </r>
       <r>    -7.1749     0.0000    64.0000 </r>
       <r>    -7.1206     0.0000    64.0000 </r>
       <r>    -7.0664     0.0000    64.0000 </r>
       <r>    -7.0121     0.0000    64.0000 </r>
       <r>    -6.9579     0.0000    64.0000 </r>
       <r>    -6.9036     0.0000    64.0000 </r>
       <r>    -6.8494     0.0000    64.0000 </r>
       <r>    -6.7951     0.0000    64.0000 </r>
       <r>    -6.7409     0.0000    64.0000 </r>
       <r>    -6.6866     0.0000    64.0000 </r>
       <r>    -6.6324     0.0000    64.0000 </r>
       <r>    -6.5782     0.0000    64.0000 </r>
       <r>    -6.5239     0.0000    64.0000 </r>
       <r>    -6.4697     0.0000    64.0000 </r>
       <r>    -6.4154     0.0000    64.0000 </r>
       <r>    -6.3612     0.0000    64.0000 </r>
       <r>    -6.3069     0.0000    64.0000 </r>
       <r>    -6.2527     0.0000    64.0000 </r>
       <r>    -6.1984     0.0000    64.0000 </r>
       <r>    -6.1442     0.0000    64.0000 </r>
       <r>    -6.0899     0.0000    64.0000 </r>
       <r>    -6.0357     0.0000    64.0000 </r>
       <r>    -5.9815     0.0000    64.0000 </r>
       <r>    -5.9272     0.0000    64.0000 </r>
       <r>    -5.8730     0.0000    64.0000 </r>
       <r>    -5.8187     0.0000    64.0000 </r>
       <r>    -5.7645     0.0000    64.0000 </r>
       <r>    -5.7102     0.0000    64.0000 </r>
       <r>    -5.6560     0.0000    64.0000 </r>
       <r>    -5.6017     0.0000    64.0000 </r>
       <r>    -5.5475     0.0000    64.0000 </r>
       <r>    -5.4932     0.0000    64.0000 </r>
       <r>    -5.4390     0.0035    64.0002 </r>
       <r>    -5.3848     0.3053    64.0168 </r>
       <r>    -5.3305     3.2236    64.1916 </r>
       <r>    -5.2763     4.8921    64.4570 </r>
       <r>    -5.2220     5.7971    64.7715 </r>
       <r>    -5.1678    17.7464    65.7341 </r>
       <r>    -5.1135    16.9233    66.6521 </r>
       <r>    -5.0593    17.0606    67.5776 </r>
       <r>    -5.0050    14.1255    68.3439 </r>
       <r>    -4.9508    15.0022    69.1577 </r>
       <r>    -4.8965    17.8496    70.1259 </r>
       <r>    -4.8423    10.4685    70.6938 </r>
       <r>    -4.7880    15.2271    71.5198 </r>
       <r>    -4.7338    24.9423    72.8728 </r>
       <r>    -4.6796    29.1836    74.4559 </r>
       <r>    -4.6253    24.3914    75.7790 </r>
       <r>    -4.5711    14.5036    76.5658 </r>
       <r>    -4.5168    21.0301    77.7066 </r>
       <r>    -4.4626    30.2611    79.3481 </r>
       <r>    -4.4083    29.5945    80.9535 </r>
       <r>    -4.3541    42.1141    83.2380 </r>
       <r>    -4.2998    57.6389    86.3647 </r>
       <r>    -4.2456    70.7725    90.2038 </r>
       <r>    -4.1913    78.4658    94.4602 </r>
       <r>    -4.1371    66.4524    98.0650 </r>
       <r>    -4.0829    54.0452   100.9967 </r>
       <r>    -4.0286    31.8027   102.7219 </r>
       <r>    -3.9744    35.9159   104.6701 </r>
       <r>    -3.9201    35.2212   106.5807 </r>
       <r>    -3.8659    41.4060   108.8268 </r>
       <r>    -3.8116    35.0895   110.7303 </r>
       <r>    -3.7574    23.8140   112.0221 </r>
       <r>    -3.7031    23.6646   113.3058 </r>
       <r>    -3.6489    29.1017   114.8844 </r>
       <r>    -3.5946    31.1707   116.5753 </r>
       <r>    -3.5404    21.6983   117.7524 </r>
       <r>    -3.4862    32.7094   119.5267 </r>
       <r>    -3.4319    38.4962   121.6150 </r>
       <r>    -3.3777    46.1504   124.1184 </r>
       <r>    -3.3234    58.0161   127.2655 </r>
       <r>    -3.2692    45.6671   129.7428 </r>
       <r>    -3.2149    31.5654   131.4551 </r>
       <r>    -3.1607    30.9044   133.1315 </r>
       <r>    -3.1064    25.1361   134.4950 </r>
       <r>    -3.0522    30.2088   136.1337 </r>
       <r>    -2.9979    41.4533   138.3824 </r>
       <r>    -2.9437    49.9867   141.0940 </r>
       <r>    -2.8894    50.3150   143.8233 </r>
       <r>    -2.8352    30.8000   145.4941 </r>
       <r>    -2.7810    27.6670   146.9949 </r>
       <r>    -2.7267    48.5225   149.6271 </r>
       <r>    -2.6725    56.4210   152.6877 </r>
       <r>    -2.6182    57.7688   155.8214 </r>
       <r>    -2.5640    61.4898   159.1569 </r>
       <r>    -2.5097    53.2465   162.0453 </r>
       <r>    -2.4555    66.4895   165.6521 </r>
       <r>    -2.4012    51.6336   168.4530 </r>
       <r>    -2.3470    35.0777   170.3558 </r>
       <r>    -2.2927    43.6971   172.7262 </r>
       <r>    -2.2385    42.3944   175.0259 </r>
       <r>    -2.1843    46.5173   177.5493 </r>
       <r>    -2.1300    41.9980   179.8275 </r>
       <r>    -2.0758    36.7337   181.8201 </r>
       <r>    -2.0215    32.8945   183.6045 </r>
       <r>    -1.9673    42.1538   185.8912 </r>
       <r>    -1.9130    51.4902   188.6843 </r>
       <r>    -1.8588    44.5384   191.1003 </r>
       <r>    -1.8045    42.1960   193.3893 </r>
       <r>    -1.7503    39.4789   195.5309 </r>
       <r>    -1.6960    55.4684   198.5398 </r>
       <r>    -1.6418    55.0985   201.5286 </r>
       <r>    -1.5876    48.8147   204.1766 </r>
       <r>    -1.5333    51.0428   206.9455 </r>
       <r>    -1.4791    43.0587   209.2812 </r>
       <r>    -1.4248    41.4587   211.5302 </r>
       <r>    -1.3706    71.8826   215.4295 </r>
       <r>    -1.3163    98.9407   220.7966 </r>
       <r>    -1.2621    83.0324   225.3008 </r>
       <r>    -1.2078    37.8980   227.3566 </r>
       <r>    -1.1536    37.3330   229.3817 </r>
       <r>    -1.0993    55.0799   232.3696 </r>
       <r>    -1.0451    51.5179   235.1642 </r>
       <r>    -0.9908    40.4123   237.3564 </r>
       <r>    -0.9366    50.0420   240.0710 </r>
       <r>    -0.8824    74.7219   244.1243 </r>
       <r>    -0.8281    81.4715   248.5438 </r>
       <r>    -0.7739    63.6943   251.9990 </r>
       <r>    -0.7196    58.3096   255.1620 </r>
       <r>    -0.6654    54.8376   258.1367 </r>
       <r>    -0.6111    42.6891   260.4524 </r>
       <r>    -0.5569    43.3535   262.8041 </r>
       <r>    -0.5026    51.9791   265.6238 </r>
       <r>    -0.4484    44.4242   268.0336 </r>
       <r>    -0.3941    42.6059   270.3448 </r>
       <r>    -0.3399    36.3880   272.3187 </r>
       <r>    -0.2857    30.7831   273.9885 </r>
       <r>    -0.2314    31.7127   275.7088 </r>
       <r>    -0.1772    45.0359   278.1518 </r>
       <r>    -0.1229    32.0891   279.8925 </r>
       <r>    -0.0687    27.9074   281.4064 </r>
       <r>    -0.0144    28.5487   282.9550 </r>
       <r>     0.0398    29.0170   284.5291 </r>
       <r>     0.0941    21.6806   285.7052 </r>
       <r>     0.1483     8.5250   286.1676 </r>
       <r>     0.2026     5.0727   286.4428 </r>
       <r>     0.2568     1.0345   286.4989 </r>
       <r>     0.3111     0.6218   286.5326 </r>
       <r>     0.3653     6.3582   286.8775 </r>
       <r>     0.4195    13.7281   287.6222 </r>
       <r>     0.4738    11.7459   288.2594 </r>
       <r>     0.5280     9.1296   288.7546 </r>
       <r>     0.5823     8.7653   289.2301 </r>
       <r>     0.6365    21.4465   290.3935 </r>
       <r>     0.6908    24.3194   291.7127 </r>
       <r>     0.7450    22.9154   292.9558 </r>
       <r>     0.7993    37.4467   294.9871 </r>
       <r>     0.8535    27.1676   296.4608 </r>
       <r>     0.9078    16.0656   297.3323 </r>
       <r>     0.9620    16.9528   298.2519 </r>
       <r>     1.0162    17.5352   299.2031 </r>
       <r>     1.0705    16.5762   300.1023 </r>
       <r>     1.1247    14.9100   300.9111 </r>
       <r>     1.1790    13.3094   301.6331 </r>
       <r>     1.2332    19.3208   302.6812 </r>
       <r>     1.2875    36.0318   304.6358 </r>
       <r>     1.3417    21.4491   305.7993 </r>
       <r>     1.3960    22.9003   307.0415 </r>
       <r>     1.4502    52.0550   309.8653 </r>
       <r>     1.5045    62.6638   313.2645 </r>
       <r>     1.5587    61.8339   316.6188 </r>
       <r>     1.6129    41.9233   318.8929 </r>
       <r>     1.6672    11.9808   319.5428 </r>
       <r>     1.7214     7.2972   319.9387 </r>
       <r>     1.7757    19.7653   321.0108 </r>
       <r>     1.8299    51.2587   323.7914 </r>
       <r>     1.8842    67.6290   327.4600 </r>
       <r>     1.9384    52.8623   330.3276 </r>
       <r>     1.9927    50.0924   333.0449 </r>
       <r>     2.0469    57.7391   336.1770 </r>
       <r>     2.1012    45.1179   338.6244 </r>
       <r>     2.1554    60.5824   341.9107 </r>
       <r>     2.2097    64.0532   345.3854 </r>
       <r>     2.2639    49.8222   348.0880 </r>
       <r>     2.3181    34.3140   349.9494 </r>
       <r>     2.3724    21.5946   351.1208 </r>
       <r>     2.4266    13.3610   351.8456 </r>
       <r>     2.4809     2.7564   351.9951 </r>
       <r>     2.5351     0.0899   352.0000 </r>
       <r>     2.5894     0.0004   352.0000 </r>
       <r>     2.6436     0.0000   352.0000 </r>
       <r>     2.6979     0.0000   352.0000 </r>
       <r>     2.7521     0.0000   352.0000 </r>
       <r>     2.8064     0.0000   352.0000 </r>
       <r>     2.8606     0.0000   352.0000 </r>
       <r>     2.9148     0.0000   352.0000 </r>
       <r>     2.9691     0.0000   352.0000 </r>
       <r>     3.0233     0.0000   352.0000 </r>
       <r>     3.0776     0.0000   352.0000 </r>
       <r>     3.1318     0.0000   352.0000 </r>
      </set>
     </set>
    </array>
   </total>
  </dos>
 </calculation>
 <structure name="finalpos" >
  <crystal>
   <varray name="basis" >
    <v>      13.80799961       0.00000000       0.00000000 </v>
    <v>       0.00000000      12.73600006       0.00000000 </v>
    <v>       0.00000000       0.00000000      16.00000000 </v>
   </varray>
   <i name="volume">   2813.73894219 </i>
   <varray name="rec_basis" >
    <v>       0.07242179       0.00000000       0.00000000 </v>
    <v>       0.00000000       0.07851759       0.00000000 </v>
    <v>       0.00000000       0.00000000       0.06250000 </v>
   </varray>
  </crystal>
  <varray name="positions" >
   <v>       0.12499998       0.05081783       0.62912054 </v>
   <v>       0.62500003       0.05081782       0.62912048 </v>
   <v>       0.37499996       0.05081782       0.62912054 </v>
   <v>       0.87500004       0.05081779       0.62912056 </v>
   <v>       0.12499996       0.55081778       0.62912060 </v>
   <v>       0.62499997       0.55081771       0.62912054 </v>
   <v>       0.37500005       0.55081781       0.62912049 </v>
   <v>       0.87500003       0.55081781       0.62912053 </v>
   <v>       0.12499996       0.37459999       0.40761893 </v>
   <v>       0.62499996       0.37460000       0.40761898 </v>
   <v>       0.37500001       0.37460001       0.40761896 </v>
   <v>       0.87500007       0.37460004       0.40761895 </v>
   <v>       0.12499996       0.87459999       0.40761891 </v>
   <v>       0.62500001       0.87460008       0.40761896 </v>
   <v>       0.37500004       0.87460000       0.40761895 </v>
   <v>       0.87500001       0.87459999       0.40761896 </v>
   <v>       0.00000004       0.12870234       0.37088047 </v>
   <v>       0.50000001       0.12870237       0.37088051 </v>
   <v>       0.24999998       0.12870233       0.37088051 </v>
   <v>       0.74999997       0.12870232       0.37088053 </v>
   <v>       0.00000000       0.62870234       0.37088046 </v>
   <v>       0.49999992       0.62870229       0.37088050 </v>
   <v>       0.24999997       0.62870238       0.37088045 </v>
   <v>       0.75000010       0.62870233       0.37088048 </v>
   <v>       0.00000005       0.30491863       0.59238169 </v>
   <v>       0.49999999       0.30491861       0.59238162 </v>
   <v>       0.24999996       0.30491856       0.59238168 </v>
   <v>       0.75000000       0.30491857       0.59238166 </v>
   <v>      -0.00000003       0.80491860       0.59238170 </v>
   <v>       0.49999998       0.80491861       0.59238166 </v>
   <v>       0.25000001       0.80491857       0.59238166 </v>
   <v>       0.75000004       0.80491859       0.59238163 </v>
   <v>       0.12500001       0.18028716       0.49407263 </v>
   <v>       0.62500002       0.18028725       0.49407263 </v>
   <v>       0.37499997       0.18028722       0.49407261 </v>
   <v>       0.87500000       0.18028716       0.49407263 </v>
   <v>       0.12500002       0.68028717       0.49407263 </v>
   <v>       0.62499998       0.68028714       0.49407264 </v>
   <v>       0.37499989       0.68028717       0.49407265 </v>
   <v>       0.87500010       0.68028718       0.49407264 </v>
   <v>       0.00000006       0.99923253       0.50592563 </v>
   <v>       0.49999996       0.99923248       0.50592564 </v>
   <v>       0.24999992       0.99923257       0.50592562 </v>
   <v>       0.75000004       0.99923250       0.50592561 </v>
   <v>      -0.00000004       0.49923257       0.50592564 </v>
   <v>       0.50000004       0.49923248       0.50592567 </v>
   <v>       0.25000001       0.49923258       0.50592565 </v>
   <v>       0.74999999       0.49923254       0.50592565 </v>
  </varray>
 </structure>
</modeling>
