<?xml version="1.0" encoding="ISO-8859-1"?>
<modeling>
 <generator>
  <i name="program" type="string">vasp </i>
  <i name="version" type="string">5.3.5  </i>
  <i name="subversion" type="string">31Mar14 (build Mar 18 2017 11:34:20) complex                          parallel </i>
  <i name="platform" type="string">LinuxIFC </i>
  <i name="date" type="string">2018 02 07 </i>
  <i name="time" type="string">14:20:48 </i>
 </generator>
 <incar>
  <i type="string" name="SYSTEM"> MoTe2 Phonon calculation</i>
  <i type="string" name="PREC">accurate</i>
  <i type="string" name="ALGO"> Normal</i>
  <i type="logical" name="ADDGRID"> T  </i>
  <i type="int" name="NELMDL">    -5</i>
  <i type="int" name="IBRION">     8</i>
  <i name="EDIFF">      0.00000100</i>
  <i type="int" name="NSW">     1</i>
  <i type="int" name="ISIF">     2</i>
  <i type="int" name="ISYM">     0</i>
  <i name="ENCUT">    400.00000000</i>
  <i name="POTIM">      0.50000000</i>
  <i type="logical" name="LREAL"> F  </i>
  <i type="int" name="ISMEAR">     0</i>
  <i name="SIGMA">      0.05000000</i>
  <i type="int" name="NWRITE">     3</i>
  <i type="logical" name="LWAVE"> F  </i>
  <i type="logical" name="LCHARG"> F  </i>
 </incar>
 <kpoints>
  <generation param="Monkhorst-Pack">
   <v type="int" name="divisions">       4        4        1 </v>
   <v name="usershift">      0.00000000       0.00000000       0.00000000 </v>
   <v name="genvec1">      0.25000000       0.00000000       0.00000000 </v>
   <v name="genvec2">      0.00000000       0.25000000       0.00000000 </v>
   <v name="genvec3">      0.00000000       0.00000000       1.00000000 </v>
   <v name="shift">      0.50000000       0.50000000       0.00000000 </v>
  </generation>
  <varray name="kpointlist" >
   <v>       0.12500000       0.12500000       0.00000000 </v>
   <v>       0.37500000       0.12500000       0.00000000 </v>
   <v>      -0.37500000       0.12500000       0.00000000 </v>
   <v>      -0.12500000       0.12500000       0.00000000 </v>
   <v>       0.12500000       0.37500000       0.00000000 </v>
   <v>       0.37500000       0.37500000       0.00000000 </v>
   <v>      -0.37500000       0.37500000       0.00000000 </v>
   <v>      -0.12500000       0.37500000       0.00000000 </v>
  </varray>
  <varray name="weights" >
   <v>       0.12500000 </v>
   <v>       0.12500000 </v>
   <v>       0.12500000 </v>
   <v>       0.12500000 </v>
   <v>       0.12500000 </v>
   <v>       0.12500000 </v>
   <v>       0.12500000 </v>
   <v>       0.12500000 </v>
  </varray>
 </kpoints>
 <parameters>
  <separator name="general" >
   <i type="string" name="SYSTEM">MoTe2 Phonon calculation</i>
   <i type="logical" name="LCOMPAT"> F  </i>
  </separator>
  <separator name="electronic" >
   <i type="string" name="PREC">accura</i>
   <i name="ENMAX">    400.00000000</i>
   <i name="ENAUG">    368.79200000</i>
   <i name="EDIFF">      0.00000100</i>
   <i type="int" name="IALGO">    38</i>
   <i type="int" name="IWAVPR">    11</i>
   <i type="int" name="NBANDS">   176</i>
   <i name="NELECT">    288.00000000</i>
   <i type="int" name="TURBO">     0</i>
   <i type="int" name="IRESTART">     0</i>
   <i type="int" name="NREBOOT">     0</i>
   <i type="int" name="NMIN">     0</i>
   <i name="EREF">      0.00000000</i>
   <separator name="electronic smearing" >
    <i type="int" name="ISMEAR">     0</i>
    <i name="SIGMA">      0.05000000</i>
    <i name="KSPACING">      0.50000000</i>
    <i type="logical" name="KGAMMA"> T  </i>
   </separator>
   <separator name="electronic projectors" >
    <i type="logical" name="LREAL"> F  </i>
    <v name="ROPT">      0.00000000      0.00000000</v>
    <i type="int" name="LMAXPAW">  -100</i>
    <i type="int" name="LMAXMIX">     2</i>
    <i type="logical" name="NLSPLINE"> F  </i>
   </separator>
   <separator name="electronic startup" >
    <i type="int" name="ISTART">     0</i>
    <i type="int" name="ICHARG">     2</i>
    <i type="int" name="INIWAV">     1</i>
   </separator>
   <separator name="electronic spin" >
    <i type="int" name="ISPIN">     1</i>
    <i type="logical" name="LNONCOLLINEAR"> F  </i>
    <v name="MAGMOM">      1.00000000      1.00000000      1.00000000      1.00000000      1.00000000      1.00000000      1.00000000      1.00000000      1.00000000      1.00000000      1.00000000      1.00000000      1.00000000      1.00000000      1.00000000      1.00000000      1.00000000      1.00000000      1.00000000      1.00000000
      1.00000000      1.00000000      1.00000000      1.00000000      1.00000000      1.00000000      1.00000000      1.00000000      1.00000000      1.00000000      1.00000000      1.00000000      1.00000000      1.00000000      1.00000000      1.00000000      1.00000000      1.00000000      1.00000000      1.00000000
      1.00000000      1.00000000      1.00000000      1.00000000      1.00000000      1.00000000      1.00000000      1.00000000</v>
    <i name="NUPDOWN">     -1.00000000</i>
    <i type="logical" name="LSORBIT"> F  </i>
    <v name="SAXIS">      0.00000000      0.00000000      1.00000000</v>
    <i type="logical" name="LSPIRAL"> F  </i>
    <v name="QSPIRAL">      0.00000000      0.00000000      0.00000000</v>
    <i type="logical" name="LZEROZ"> F  </i>
   </separator>
   <separator name="electronic exchange-correlation" >
    <i type="logical" name="LASPH"> F  </i>
    <i type="logical" name="LMETAGGA"> F  </i>
   </separator>
   <separator name="electronic convergence" >
    <i type="int" name="NELM">    60</i>
    <i type="int" name="NELMDL">    -5</i>
    <i type="int" name="NELMIN">     2</i>
    <i name="ENINI">    400.00000000</i>
    <separator name="electronic convergence detail" >
     <i type="logical" name="LDIAG"> T  </i>
     <i type="logical" name="LSUBROT"> F  </i>
     <i name="WEIMIN">      0.00100000</i>
     <i name="EBREAK">      0.00000000</i>
     <i name="DEPER">      0.30000000</i>
     <i type="int" name="NRMM">     4</i>
     <i name="TIME">      0.40000000</i>
    </separator>
   </separator>
   <separator name="electronic mixer" >
    <i name="AMIX">      0.40000000</i>
    <i name="BMIX">      1.00000000</i>
    <i name="AMIN">      0.10000000</i>
    <i name="AMIX_MAG">      1.60000000</i>
    <i name="BMIX_MAG">      1.00000000</i>
    <separator name="electronic mixer details" >
     <i type="int" name="IMIX">     4</i>
     <i type="int" name="MAXMIX">   -45</i>
     <i name="WC">    100.00000000</i>
     <i type="int" name="INIMIX">     1</i>
     <i type="int" name="MIXPRE">     1</i>
     <i type="int" name="MREMOVE">     5</i>
    </separator>
   </separator>
   <separator name="electronic dipolcorrection" >
    <i type="logical" name="LDIPOL"> F  </i>
    <i type="logical" name="LMONO"> F  </i>
    <i type="int" name="IDIPOL">     0</i>
    <i name="EPSILON">      1.00000000</i>
    <v name="DIPOL">   -100.00000000   -100.00000000   -100.00000000</v>
    <i name="EFIELD">      0.00000000</i>
   </separator>
  </separator>
  <separator name="grids" >
   <i type="int" name="NGX">    90</i>
   <i type="int" name="NGY">    84</i>
   <i type="int" name="NGZ">   108</i>
   <i type="int" name="NGXF">   180</i>
   <i type="int" name="NGYF">   168</i>
   <i type="int" name="NGZF">   216</i>
   <i type="logical" name="ADDGRID"> T  </i>
  </separator>
  <separator name="ionic" >
   <i type="int" name="NSW">     1</i>
   <i type="int" name="IBRION">     8</i>
   <i type="int" name="ISIF">     2</i>
   <i name="PSTRESS">      0.00000000</i>
   <i name="EDIFFG">      0.00001000</i>
   <i type="int" name="NFREE">     0</i>
   <i name="POTIM">      0.50000000</i>
   <i name="SMASS">     -3.00000000</i>
   <i name="SCALEE">      1.00000000</i>
  </separator>
  <separator name="ionic md" >
   <i name="TEBEG">      0.00010000</i>
   <i name="TEEND">      0.00010000</i>
   <i type="int" name="NBLOCK">     1</i>
   <i type="int" name="KBLOCK">     1</i>
   <i type="int" name="NPACO">   256</i>
   <i name="APACO">     16.00000000</i>
  </separator>
  <separator name="symmetry" >
   <i type="int" name="ISYM">     0</i>
   <i name="SYMPREC">      0.00001000</i>
  </separator>
  <separator name="dos" >
   <i type="logical" name="LORBIT"> F  </i>
   <v name="RWIGS">     -1.00000000     -1.00000000</v>
   <i type="int" name="NEDOS">   301</i>
   <i name="EMIN">     10.00000000</i>
   <i name="EMAX">    -10.00000000</i>
   <i name="EFERMI">      0.00000000</i>
  </separator>
  <separator name="writing" >
   <i type="int" name="NWRITE">     3</i>
   <i type="logical" name="LWAVE"> F  </i>
   <i type="logical" name="LCHARG"> F  </i>
   <i type="logical" name="LPARD"> F  </i>
   <i type="logical" name="LVTOT"> F  </i>
   <i type="logical" name="LVHAR"> F  </i>
   <i type="logical" name="LELF"> F  </i>
   <i type="logical" name="LOPTICS"> F  </i>
   <v name="STM">      0.00000000      0.00000000      0.00000000      0.00000000      0.00000000      0.00000000      0.00000000</v>
  </separator>
  <separator name="performance" >
   <i type="int" name="NPAR">    16</i>
   <i type="int" name="NSIM">     4</i>
   <i type="int" name="NBLK">    -1</i>
   <i type="logical" name="LPLANE"> T  </i>
   <i type="logical" name="LSCALAPACK"> T  </i>
   <i type="logical" name="LSCAAWARE"> F  </i>
   <i type="logical" name="LSCALU"> F  </i>
   <i type="logical" name="LASYNC"> F  </i>
   <i type="logical" name="LORBITALREAL"> F  </i>
  </separator>
  <separator name="miscellaneous" >
   <i type="int" name="IDIOT">     3</i>
   <i type="logical" name="LMUSIC"> F  </i>
   <v name="POMASS">    127.60000000     95.94000000</v>
   <v name="DARWINR">      0.00000000      0.00000000</v>
   <v name="DARWINV">      1.00000000      1.00000000</v>
   <i type="logical" name="LCORR"> T  </i>
  </separator>
  <i type="logical" name="GGA_COMPAT"> T  </i>
  <i type="logical" name="LBERRY"> F  </i>
  <i type="int" name="ICORELEVEL">     0</i>
  <i type="logical" name="LDAU"> F  </i>
  <i type="int" name="I_CONSTRAINED_M">     0</i>
  <separator name="electronic exchange-correlation" >
   <i type="string" name="GGA">--</i>
   <i type="int" name="VOSKOWN">     0</i>
   <i type="logical" name="LHFCALC"> F  </i>
   <i type="string" name="PRECFOCK"></i>
   <i type="logical" name="LSYMGRAD"> F  </i>
   <i type="logical" name="LHFONE"> F  </i>
   <i type="logical" name="LRHFCALC"> F  </i>
   <i type="logical" name="LTHOMAS"> F  </i>
   <i type="logical" name="LMODELHF"> F  </i>
   <i name="ENCUT4O">     -1.00000000</i>
   <i type="int" name="EXXOEP">     0</i>
   <i type="int" name="FOURORBIT">     0</i>
   <i name="AEXX">      0.00000000</i>
   <i name="HFALPHA">      0.00000000</i>
   <i name="MCALPHA">      0.00000000</i>
   <i name="ALDAX">      1.00000000</i>
   <i name="AGGAX">      1.00000000</i>
   <i name="ALDAC">      1.00000000</i>
   <i name="AGGAC">      1.00000000</i>
   <i type="int" name="NKREDX">     1</i>
   <i type="int" name="NKREDY">     1</i>
   <i type="int" name="NKREDZ">     1</i>
   <i type="logical" name="SHIFTRED"> F  </i>
   <i type="logical" name="ODDONLY"> F  </i>
   <i type="logical" name="EVENONLY"> F  </i>
   <i type="int" name="LMAXFOCK">     0</i>
   <i type="int" name="NMAXFOCKAE">     0</i>
   <i type="logical" name="LFOCKAEDFT"> F  </i>
   <i name="HFSCREEN">      0.00000000</i>
   <i name="HFSCREENC">      0.00000000</i>
   <i type="int" name="NBANDSGWLOW">     0</i>
  </separator>
  <separator name="vdW DFT" >
   <i type="logical" name="LUSE_VDW"> F  </i>
   <i name="Zab_VDW">     -0.84910000</i>
   <i name="PARAM1">      0.12340000</i>
   <i name="PARAM2">      1.00000000</i>
   <i name="PARAM3">      0.00000000</i>
  </separator>
  <separator name="model GW" >
   <i type="int" name="MODEL_GW">     0</i>
   <i name="MODEL_EPS0">     35.17173678</i>
   <i name="MODEL_ALPHA">      1.00000000</i>
  </separator>
  <separator name="linear response parameters" >
   <i type="logical" name="LEPSILON"> F  </i>
   <i type="logical" name="LRPA"> F  </i>
   <i type="logical" name="LNABLA"> F  </i>
   <i type="logical" name="LVEL"> F  </i>
   <i type="int" name="KINTER">     0</i>
   <i name="CSHIFT">      0.10000000</i>
   <i name="OMEGAMAX">     -1.00000000</i>
   <i name="DEG_THRESHOLD">      0.00200000</i>
  </separator>
  <separator name="orbital magnetization" >
   <i type="logical" name="NUCIND"> F  </i>
   <v name="MAGPOS">      0.00000000      0.00000000      0.00000000</v>
   <i type="logical" name="LNICSALL"> T  </i>
   <i type="logical" name="ORBITALMAG"> F  </i>
   <i type="logical" name="LMAGBLOCH"> F  </i>
   <i type="logical" name="LCHIMAG"> F  </i>
   <i type="logical" name="LGAUGE"> T  </i>
   <i type="int" name="MAGATOM">     0</i>
   <v name="MAGDIPOL">      0.00000000      0.00000000      0.00000000</v>
   <v name="AVECCONST">      0.00000000      0.00000000      0.00000000</v>
  </separator>
  <separator name="response functions" >
   <i type="logical" name="LADDER"> F  </i>
   <i type="logical" name="LFXC"> F  </i>
   <i type="logical" name="LHARTREE"> T  </i>
   <i type="int" name="IBSE">     0</i>
   <i type="logical" name="LTCTE"> F  </i>
   <i type="logical" name="LTETE"> F  </i>
   <i type="logical" name="LTRIPLET"> F  </i>
   <i type="logical" name="LFXCEPS"> F  </i>
   <i type="logical" name="LFXHEG"> F  </i>
   <i type="logical" name="L2ORDER"> F  </i>
   <i type="logical" name="LUSEW"> F  </i>
   <i name="ENCUTGW">     -2.00000000</i>
   <i name="ENCUTGWSOFT">     -2.00000000</i>
   <i name="ENCUTLF">     -1.00000000</i>
   <i type="int" name="LMAXMP2">    -1</i>
   <i name="SCISSOR">      0.00000000</i>
   <i type="int" name="NOMEGA">     0</i>
   <i type="int" name="NOMEGAR">     0</i>
   <i type="int" name="NBANDSGW">    -1</i>
   <i type="int" name="NBANDSO">    -1</i>
   <i type="int" name="NBANDSV">    -1</i>
   <i type="int" name="NELM">     1</i>
   <i type="int" name="DIM">     3</i>
   <i type="int" name="ANTIRES">     0</i>
   <i name="OMEGAMAX">    -30.00000000</i>
   <i name="OMEGAMIN">    -30.00000000</i>
   <i name="OMEGATL">   -200.00000000</i>
   <i type="int" name="OMEGAGRID">     0</i>
   <i name="CSHIFT">     -0.10000000</i>
   <i type="logical" name="SELFENERGY"> F  </i>
   <i type="logical" name="LSPECTRAL"> F  </i>
   <i type="logical" name="ODDONLYGW"> F  </i>
   <i type="logical" name="EVENONLYGW"> F  </i>
   <i type="int" name="NKREDLFX">     1</i>
   <i type="int" name="NKREDLFY">     1</i>
   <i type="int" name="NKREDLFZ">     1</i>
   <i type="int" name="MAXMEM">  1800</i>
   <i type="int" name="TELESCOPE">     0</i>
   <i type="int" name="TAUPAR">     1</i>
  </separator>
  <separator name="External order field" >
   <i name="OFIELD_KAPPA">      0.00000000</i>
   <v name="OFIELD_K">      0.00000000      0.00000000      0.00000000</v>
   <i name="OFIELD_Q6_NEAR">      0.00000000</i>
   <i name="OFIELD_Q6_FAR">      0.00000000</i>
   <i name="OFIELD_A">      0.00000000</i>
  </separator>
 </parameters>
 <atominfo>
  <atoms>      48 </atoms>
  <types>       2 </types>
  <array name="atoms" >
   <dimension dim="1">ion</dimension>
   <field type="string">element</field>
   <field type="int">atomtype</field>
   <set>
    <rc><c>Te</c><c>   1</c></rc>
    <rc><c>Te</c><c>   1</c></rc>
    <rc><c>Te</c><c>   1</c></rc>
    <rc><c>Te</c><c>   1</c></rc>
    <rc><c>Te</c><c>   1</c></rc>
    <rc><c>Te</c><c>   1</c></rc>
    <rc><c>Te</c><c>   1</c></rc>
    <rc><c>Te</c><c>   1</c></rc>
    <rc><c>Te</c><c>   1</c></rc>
    <rc><c>Te</c><c>   1</c></rc>
    <rc><c>Te</c><c>   1</c></rc>
    <rc><c>Te</c><c>   1</c></rc>
    <rc><c>Te</c><c>   1</c></rc>
    <rc><c>Te</c><c>   1</c></rc>
    <rc><c>Te</c><c>   1</c></rc>
    <rc><c>Te</c><c>   1</c></rc>
    <rc><c>Te</c><c>   1</c></rc>
    <rc><c>Te</c><c>   1</c></rc>
    <rc><c>Te</c><c>   1</c></rc>
    <rc><c>Te</c><c>   1</c></rc>
    <rc><c>Te</c><c>   1</c></rc>
    <rc><c>Te</c><c>   1</c></rc>
    <rc><c>Te</c><c>   1</c></rc>
    <rc><c>Te</c><c>   1</c></rc>
    <rc><c>Te</c><c>   1</c></rc>
    <rc><c>Te</c><c>   1</c></rc>
    <rc><c>Te</c><c>   1</c></rc>
    <rc><c>Te</c><c>   1</c></rc>
    <rc><c>Te</c><c>   1</c></rc>
    <rc><c>Te</c><c>   1</c></rc>
    <rc><c>Te</c><c>   1</c></rc>
    <rc><c>Te</c><c>   1</c></rc>
    <rc><c>Mo</c><c>   2</c></rc>
    <rc><c>Mo</c><c>   2</c></rc>
    <rc><c>Mo</c><c>   2</c></rc>
    <rc><c>Mo</c><c>   2</c></rc>
    <rc><c>Mo</c><c>   2</c></rc>
    <rc><c>Mo</c><c>   2</c></rc>
    <rc><c>Mo</c><c>   2</c></rc>
    <rc><c>Mo</c><c>   2</c></rc>
    <rc><c>Mo</c><c>   2</c></rc>
    <rc><c>Mo</c><c>   2</c></rc>
    <rc><c>Mo</c><c>   2</c></rc>
    <rc><c>Mo</c><c>   2</c></rc>
    <rc><c>Mo</c><c>   2</c></rc>
    <rc><c>Mo</c><c>   2</c></rc>
    <rc><c>Mo</c><c>   2</c></rc>
    <rc><c>Mo</c><c>   2</c></rc>
   </set>
  </array>
  <array name="atomtypes" >
   <dimension dim="1">type</dimension>
   <field type="int">atomspertype</field>
   <field type="string">element</field>
   <field>mass</field>
   <field>valence</field>
   <field type="string">pseudopotential</field>
   <set>
    <rc><c>  32</c><c>Te</c><c>    127.60000000</c><c>      6.00000000</c><c>  PAW_PBE Te 08Apr2002                  </c></rc>
    <rc><c>  16</c><c>Mo</c><c>     95.94000000</c><c>      6.00000000</c><c>  PAW_PBE Mo 08Apr2002                  </c></rc>
   </set>
  </array>
 </atominfo>
 <structure name="initialpos" >
  <crystal>
   <varray name="basis" >
    <v>      13.80799961       0.00000000       0.00000000 </v>
    <v>       0.00000000      12.73600006       0.00000000 </v>
    <v>       0.00000000       0.00000000      16.00000000 </v>
   </varray>
   <i name="volume">   2813.73894219 </i>
   <varray name="rec_basis" >
    <v>       0.07242179       0.00000000       0.00000000 </v>
    <v>       0.00000000       0.07851759       0.00000000 </v>
    <v>       0.00000000       0.00000000       0.06250000 </v>
   </varray>
  </crystal>
  <varray name="positions" >
   <v>       0.12499998       0.05081783       0.62912054 </v>
   <v>       0.62500003       0.05081782       0.62912048 </v>
   <v>       0.37499996       0.05081782       0.62912054 </v>
   <v>       0.87500004       0.05081779       0.62912056 </v>
   <v>       0.12499996       0.55081778       0.62912060 </v>
   <v>       0.62499997       0.55081771       0.62912054 </v>
   <v>       0.37500005       0.55081781       0.62912049 </v>
   <v>       0.87500003       0.55081781       0.62912053 </v>
   <v>       0.12499996       0.37459999       0.40761893 </v>
   <v>       0.62499996       0.37460000       0.40761898 </v>
   <v>       0.37500001       0.37460001       0.40761896 </v>
   <v>       0.87500007       0.37460004       0.40761895 </v>
   <v>       0.12499996       0.87459999       0.40761891 </v>
   <v>       0.62500001       0.87460008       0.40761896 </v>
   <v>       0.37500004       0.87460000       0.40761895 </v>
   <v>       0.87500001       0.87459999       0.40761896 </v>
   <v>       0.00000004       0.12870234       0.37088047 </v>
   <v>       0.50000001       0.12870237       0.37088051 </v>
   <v>       0.24999998       0.12870233       0.37088051 </v>
   <v>       0.74999997       0.12870232       0.37088053 </v>
   <v>       0.00000000       0.62870234       0.37088046 </v>
   <v>       0.49999992       0.62870229       0.37088050 </v>
   <v>       0.24999997       0.62870238       0.37088045 </v>
   <v>       0.75000010       0.62870233       0.37088048 </v>
   <v>       0.00000005       0.30491863       0.59238169 </v>
   <v>       0.49999999       0.30491861       0.59238162 </v>
   <v>       0.24999996       0.30491856       0.59238168 </v>
   <v>       0.75000000       0.30491857       0.59238166 </v>
   <v>       0.99999997       0.80491860       0.59238170 </v>
   <v>       0.49999998       0.80491861       0.59238166 </v>
   <v>       0.25000001       0.80491857       0.59238166 </v>
   <v>       0.75000004       0.80491859       0.59238163 </v>
   <v>       0.12500001       0.18028716       0.49407263 </v>
   <v>       0.62500002       0.18028725       0.49407263 </v>
   <v>       0.37499997       0.18028722       0.49407261 </v>
   <v>       0.87500000       0.18028716       0.49407263 </v>
   <v>       0.12500002       0.68028717       0.49407263 </v>
   <v>       0.62499998       0.68028714       0.49407264 </v>
   <v>       0.37499989       0.68028717       0.49407265 </v>
   <v>       0.87500010       0.68028718       0.49407264 </v>
   <v>       0.00000006       0.99923253       0.50592563 </v>
   <v>       0.49999996       0.99923248       0.50592564 </v>
   <v>       0.24999992       0.99923257       0.50592562 </v>
   <v>       0.75000004       0.99923250       0.50592561 </v>
   <v>       0.99999996       0.49923257       0.50592564 </v>
   <v>       0.50000004       0.49923248       0.50592567 </v>
   <v>       0.25000001       0.49923258       0.50592565 </v>
   <v>       0.74999999       0.49923254       0.50592565 </v>
  </varray>
 </structure>
 <calculation>
  <scstep>
   <time name="dav">    7.23    7.32</time>
   <time name="total">    7.76    7.87</time>
   <energy>
    <i name="alphaZ">    201.53363484 </i>
    <i name="ewald">  13657.47526044 </i>
    <i name="hartreedc"> -23896.08265177 </i>
    <i name="XCdc">  -1870.29448602 </i>
    <i name="pawpsdc">  10897.14258583 </i>
    <i name="pawaedc">  -8526.97680451 </i>
    <i name="eentropy">     -0.03040621 </i>
    <i name="bandstr">    602.33016168 </i>
    <i name="atom">  10624.91387364 </i>
    <i name="e_fr_energy">   1690.01116792 </i>
    <i name="e_wo_entrp">   1690.04157413 </i>
    <i name="e_0_energy">   1690.02637103 </i>
   </energy>
  </scstep>
  <scstep>
   <time name="dav">    9.54    9.54</time>
   <time name="total">    9.70    9.70</time>
   <energy>
    <i name="e_fr_energy">    -78.29929919 </i>
    <i name="e_wo_entrp">    -78.28412512 </i>
    <i name="e_0_energy">    -78.29171216 </i>
   </energy>
  </scstep>
  <scstep>
   <time name="dav">    7.94    7.94</time>
   <time name="total">    8.10    8.10</time>
   <energy>
    <i name="e_fr_energy">   -286.54855905 </i>
    <i name="e_wo_entrp">   -286.53963803 </i>
    <i name="e_0_energy">   -286.54409854 </i>
   </energy>
  </scstep>
  <scstep>
   <time name="dav">   10.13   10.13</time>
   <time name="total">   10.29   10.29</time>
   <energy>
    <i name="e_fr_energy">   -298.98795213 </i>
    <i name="e_wo_entrp">   -298.97647743 </i>
    <i name="e_0_energy">   -298.98221478 </i>
   </energy>
  </scstep>
  <scstep>
   <time name="dav">    9.75    9.77</time>
   <time name="total">   10.64   10.67</time>
   <energy>
    <i name="e_fr_energy">   -299.32356101 </i>
    <i name="e_wo_entrp">   -299.31191676 </i>
    <i name="e_0_energy">   -299.31773889 </i>
   </energy>
  </scstep>
  <scstep>
   <time name="dav">    9.16    9.16</time>
   <time name="total">   10.50   10.50</time>
   <energy>
    <i name="e_fr_energy">   -291.81247597 </i>
    <i name="e_wo_entrp">   -291.79271314 </i>
    <i name="e_0_energy">   -291.80259455 </i>
   </energy>
  </scstep>
  <scstep>
   <time name="dav">    9.01    9.01</time>
   <time name="total">   10.37   10.37</time>
   <energy>
    <i name="e_fr_energy">   -291.61357892 </i>
    <i name="e_wo_entrp">   -291.60355454 </i>
    <i name="e_0_energy">   -291.60856673 </i>
   </energy>
  </scstep>
  <scstep>
   <time name="dav">    9.38    9.41</time>
   <time name="total">   10.70   10.73</time>
   <energy>
    <i name="e_fr_energy">   -288.05003849 </i>
    <i name="e_wo_entrp">   -288.03910554 </i>
    <i name="e_0_energy">   -288.04457201 </i>
   </energy>
  </scstep>
  <scstep>
   <time name="dav">    9.47    9.47</time>
   <time name="total">   10.79   10.80</time>
   <energy>
    <i name="e_fr_energy">   -287.88787010 </i>
    <i name="e_wo_entrp">   -287.87202192 </i>
    <i name="e_0_energy">   -287.87994601 </i>
   </energy>
  </scstep>
  <scstep>
   <time name="dav">    9.05    9.07</time>
   <time name="total">   10.42   10.45</time>
   <energy>
    <i name="e_fr_energy">   -287.84165313 </i>
    <i name="e_wo_entrp">   -287.82778447 </i>
    <i name="e_0_energy">   -287.83471880 </i>
   </energy>
  </scstep>
  <scstep>
   <time name="dav">    9.47    9.48</time>
   <time name="total">   10.79   10.80</time>
   <energy>
    <i name="e_fr_energy">   -287.82585549 </i>
    <i name="e_wo_entrp">   -287.81113433 </i>
    <i name="e_0_energy">   -287.81849491 </i>
   </energy>
  </scstep>
  <scstep>
   <time name="dav">    9.32    9.33</time>
   <time name="total">   10.63   10.64</time>
   <energy>
    <i name="e_fr_energy">   -287.81866404 </i>
    <i name="e_wo_entrp">   -287.80442750 </i>
    <i name="e_0_energy">   -287.81154577 </i>
   </energy>
  </scstep>
  <scstep>
   <time name="dav">    9.48    9.50</time>
   <time name="total">   10.79   10.82</time>
   <energy>
    <i name="e_fr_energy">   -287.81620314 </i>
    <i name="e_wo_entrp">   -287.80217364 </i>
    <i name="e_0_energy">   -287.80918839 </i>
   </energy>
  </scstep>
  <scstep>
   <time name="dav">    9.19    9.20</time>
   <time name="total">   10.50   10.51</time>
   <energy>
    <i name="e_fr_energy">   -287.81450474 </i>
    <i name="e_wo_entrp">   -287.80044477 </i>
    <i name="e_0_energy">   -287.80747475 </i>
   </energy>
  </scstep>
  <scstep>
   <time name="dav">    8.63    8.63</time>
   <time name="total">    9.95    9.95</time>
   <energy>
    <i name="e_fr_energy">   -287.81047312 </i>
    <i name="e_wo_entrp">   -287.79625338 </i>
    <i name="e_0_energy">   -287.80336325 </i>
   </energy>
  </scstep>
  <scstep>
   <time name="dav">    9.09    9.11</time>
   <time name="total">   10.40   10.42</time>
   <energy>
    <i name="e_fr_energy">   -287.80969027 </i>
    <i name="e_wo_entrp">   -287.79536570 </i>
    <i name="e_0_energy">   -287.80252799 </i>
   </energy>
  </scstep>
  <scstep>
   <time name="dav">    9.39    9.39</time>
   <time name="total">   10.71   10.72</time>
   <energy>
    <i name="e_fr_energy">   -287.81013025 </i>
    <i name="e_wo_entrp">   -287.79576887 </i>
    <i name="e_0_energy">   -287.80294956 </i>
   </energy>
  </scstep>
  <scstep>
   <time name="dav">    9.37    9.38</time>
   <time name="total">   10.70   10.70</time>
   <energy>
    <i name="e_fr_energy">   -287.81085043 </i>
    <i name="e_wo_entrp">   -287.79649939 </i>
    <i name="e_0_energy">   -287.80367491 </i>
   </energy>
  </scstep>
  <scstep>
   <time name="dav">    9.14    9.17</time>
   <time name="total">   10.47   10.49</time>
   <energy>
    <i name="e_fr_energy">   -287.81256840 </i>
    <i name="e_wo_entrp">   -287.79824562 </i>
    <i name="e_0_energy">   -287.80540701 </i>
   </energy>
  </scstep>
  <scstep>
   <time name="dav">    8.55    8.72</time>
   <time name="total">    9.87   10.04</time>
   <energy>
    <i name="e_fr_energy">   -287.81338933 </i>
    <i name="e_wo_entrp">   -287.79906604 </i>
    <i name="e_0_energy">   -287.80622768 </i>
   </energy>
  </scstep>
  <scstep>
   <time name="dav">    9.02    9.02</time>
   <time name="total">   10.35   10.35</time>
   <energy>
    <i name="e_fr_energy">   -287.81366653 </i>
    <i name="e_wo_entrp">   -287.79933567 </i>
    <i name="e_0_energy">   -287.80650110 </i>
   </energy>
  </scstep>
  <scstep>
   <time name="dav">    8.58    8.60</time>
   <time name="total">    9.90    9.93</time>
   <energy>
    <i name="e_fr_energy">   -287.81413510 </i>
    <i name="e_wo_entrp">   -287.79979817 </i>
    <i name="e_0_energy">   -287.80696664 </i>
   </energy>
  </scstep>
  <scstep>
   <time name="dav">    8.22    8.22</time>
   <time name="total">    9.60    9.60</time>
   <energy>
    <i name="e_fr_energy">   -287.81484973 </i>
    <i name="e_wo_entrp">   -287.80052079 </i>
    <i name="e_0_energy">   -287.80768526 </i>
   </energy>
  </scstep>
  <scstep>
   <time name="dav">    8.35    8.35</time>
   <time name="total">    9.67    9.67</time>
   <energy>
    <i name="e_fr_energy">   -287.81499909 </i>
    <i name="e_wo_entrp">   -287.80067778 </i>
    <i name="e_0_energy">   -287.80783843 </i>
   </energy>
  </scstep>
  <scstep>
   <time name="dav">    6.08    6.08</time>
   <time name="total">    7.43    7.43</time>
   <energy>
    <i name="e_fr_energy">   -287.81502947 </i>
    <i name="e_wo_entrp">   -287.80071051 </i>
    <i name="e_0_energy">   -287.80786999 </i>
   </energy>
  </scstep>
  <scstep>
   <time name="dav">    6.68    6.70</time>
   <time name="total">    8.00    8.03</time>
   <energy>
    <i name="e_fr_energy">   -287.81507576 </i>
    <i name="e_wo_entrp">   -287.80076088 </i>
    <i name="e_0_energy">   -287.80791832 </i>
   </energy>
  </scstep>
  <scstep>
   <time name="dav">    6.16    6.16</time>
   <time name="total">    7.49    7.49</time>
   <energy>
    <i name="e_fr_energy">   -287.81509892 </i>
    <i name="e_wo_entrp">   -287.80078382 </i>
    <i name="e_0_energy">   -287.80794137 </i>
   </energy>
  </scstep>
  <scstep>
   <time name="dav">    5.39    5.39</time>
   <time name="total">    6.73    6.73</time>
   <energy>
    <i name="e_fr_energy">   -287.81510488 </i>
    <i name="e_wo_entrp">   -287.80078908 </i>
    <i name="e_0_energy">   -287.80794698 </i>
   </energy>
  </scstep>
  <scstep>
   <time name="dav">    5.50    5.50</time>
   <time name="total">    6.84    6.84</time>
   <energy>
    <i name="e_fr_energy">   -287.81510654 </i>
    <i name="e_wo_entrp">   -287.80078982 </i>
    <i name="e_0_energy">   -287.80794818 </i>
   </energy>
  </scstep>
  <scstep>
   <time name="dav">    5.80    5.83</time>
   <time name="total">    7.14    7.17</time>
   <energy>
    <i name="e_fr_energy">   -287.81510896 </i>
    <i name="e_wo_entrp">   -287.80078924 </i>
    <i name="e_0_energy">   -287.80794910 </i>
   </energy>
  </scstep>
  <scstep>
   <time name="dav">    5.50    5.50</time>
   <time name="total">    6.08    6.08</time>
   <energy>
    <i name="alphaZ">    201.53363484 </i>
    <i name="ewald">  13657.47526044 </i>
    <i name="hartreedc"> -24051.37470836 </i>
    <i name="XCdc">  -1858.24289490 </i>
    <i name="pawpsdc">  21564.49500367 </i>
    <i name="pawaedc"> -19216.10220673 </i>
    <i name="eentropy">     -0.01432060 </i>
    <i name="bandstr">  -1210.49875170 </i>
    <i name="atom">  10624.91387364 </i>
    <i name="e_fr_energy">   -287.81510968 </i>
    <i name="e_wo_entrp">   -287.80078909 </i>
    <i name="e_0_energy">   -287.80794939 </i>
   </energy>
  </scstep>
  <structure>
   <crystal>
    <varray name="basis" >
     <v>      13.80799961       0.00000000       0.00000000 </v>
     <v>       0.00000000      12.73600006       0.00000000 </v>
     <v>       0.00000000       0.00000000      16.00000000 </v>
    </varray>
    <i name="volume">   2813.73894219 </i>
    <varray name="rec_basis" >
     <v>       0.07242179       0.00000000       0.00000000 </v>
     <v>       0.00000000       0.07851759       0.00000000 </v>
     <v>       0.00000000       0.00000000       0.06250000 </v>
    </varray>
   </crystal>
   <varray name="positions" >
    <v>       0.12499998       0.05081783       0.62912054 </v>
    <v>       0.62500003       0.05081782       0.62912048 </v>
    <v>       0.37499996       0.05081782       0.62912054 </v>
    <v>       0.87500004       0.05081779       0.62912056 </v>
    <v>       0.12499996       0.55081778       0.62912060 </v>
    <v>       0.62499997       0.55081771       0.62912054 </v>
    <v>       0.37500005       0.55081781       0.62912049 </v>
    <v>       0.87500003       0.55081781       0.62912053 </v>
    <v>       0.12499996       0.37459999       0.40761893 </v>
    <v>       0.62499996       0.37460000       0.40761898 </v>
    <v>       0.37500001       0.37460001       0.40761896 </v>
    <v>       0.87500007       0.37460004       0.40761895 </v>
    <v>       0.12499996       0.87459999       0.40761891 </v>
    <v>       0.62500001       0.87460008       0.40761896 </v>
    <v>       0.37500004       0.87460000       0.40761895 </v>
    <v>       0.87500001       0.87459999       0.40761896 </v>
    <v>       0.00000004       0.12870234       0.37088047 </v>
    <v>       0.50000001       0.12870237       0.37088051 </v>
    <v>       0.24999998       0.12870233       0.37088051 </v>
    <v>       0.74999997       0.12870232       0.37088053 </v>
    <v>       0.00000000       0.62870234       0.37088046 </v>
    <v>       0.49999992       0.62870229       0.37088050 </v>
    <v>       0.24999997       0.62870238       0.37088045 </v>
    <v>       0.75000010       0.62870233       0.37088048 </v>
    <v>       0.00000005       0.30491863       0.59238169 </v>
    <v>       0.49999999       0.30491861       0.59238162 </v>
    <v>       0.24999996       0.30491856       0.59238168 </v>
    <v>       0.75000000       0.30491857       0.59238166 </v>
    <v>       0.99999997       0.80491860       0.59238170 </v>
    <v>       0.49999998       0.80491861       0.59238166 </v>
    <v>       0.25000001       0.80491857       0.59238166 </v>
    <v>       0.75000004       0.80491859       0.59238163 </v>
    <v>       0.12500001       0.18028716       0.49407263 </v>
    <v>       0.62500002       0.18028725       0.49407263 </v>
    <v>       0.37499997       0.18028722       0.49407261 </v>
    <v>       0.87500000       0.18028716       0.49407263 </v>
    <v>       0.12500002       0.68028717       0.49407263 </v>
    <v>       0.62499998       0.68028714       0.49407264 </v>
    <v>       0.37499989       0.68028717       0.49407265 </v>
    <v>       0.87500010       0.68028718       0.49407264 </v>
    <v>       0.00000006       0.99923253       0.50592563 </v>
    <v>       0.49999996       0.99923248       0.50592564 </v>
    <v>       0.24999992       0.99923257       0.50592562 </v>
    <v>       0.75000004       0.99923250       0.50592561 </v>
    <v>       0.99999996       0.49923257       0.50592564 </v>
    <v>       0.50000004       0.49923248       0.50592567 </v>
    <v>       0.25000001       0.49923258       0.50592565 </v>
    <v>       0.74999999       0.49923254       0.50592565 </v>
   </varray>
  </structure>
  <varray name="forces" >
   <v>      -0.00000821      -0.00099493       0.00138018 </v>
   <v>      -0.00000528      -0.00100304       0.00138053 </v>
   <v>       0.00000901      -0.00099987       0.00138561 </v>
   <v>       0.00000193      -0.00101484       0.00137750 </v>
   <v>       0.00000634      -0.00100529       0.00136199 </v>
   <v>      -0.00000049      -0.00099431       0.00138229 </v>
   <v>      -0.00000458      -0.00100848       0.00138251 </v>
   <v>      -0.00000108      -0.00099086       0.00137723 </v>
   <v>       0.00000662       0.00026221       0.00149820 </v>
   <v>       0.00000068       0.00026362       0.00148412 </v>
   <v>      -0.00000352       0.00026745       0.00148857 </v>
   <v>      -0.00000367       0.00026424       0.00148301 </v>
   <v>      -0.00000280       0.00026469       0.00148326 </v>
   <v>      -0.00000402       0.00024999       0.00148276 </v>
   <v>      -0.00000138       0.00025947       0.00148070 </v>
   <v>       0.00000674       0.00025869       0.00148656 </v>
   <v>       0.00000704       0.00095369      -0.00195555 </v>
   <v>       0.00000248       0.00095699      -0.00196224 </v>
   <v>      -0.00000461       0.00097746      -0.00198017 </v>
   <v>      -0.00000585       0.00096041      -0.00198053 </v>
   <v>      -0.00000257       0.00095690      -0.00195376 </v>
   <v>       0.00000546       0.00095387      -0.00195110 </v>
   <v>       0.00000243       0.00094946      -0.00195793 </v>
   <v>      -0.00000567       0.00097028      -0.00195417 </v>
   <v>       0.00000225      -0.00013323      -0.00170331 </v>
   <v>       0.00000083      -0.00013001      -0.00169512 </v>
   <v>      -0.00000101      -0.00012076      -0.00170373 </v>
   <v>      -0.00000215      -0.00012846      -0.00169129 </v>
   <v>       0.00000265      -0.00012850      -0.00170505 </v>
   <v>       0.00000164      -0.00013593      -0.00169943 </v>
   <v>      -0.00000341      -0.00012927      -0.00169146 </v>
   <v>      -0.00000152      -0.00013198      -0.00169825 </v>
   <v>       0.00000028       0.00140073      -0.00277160 </v>
   <v>      -0.00001775       0.00137490      -0.00276931 </v>
   <v>       0.00000208       0.00138694      -0.00276798 </v>
   <v>       0.00001670       0.00138779      -0.00277060 </v>
   <v>      -0.00001590       0.00138508      -0.00276700 </v>
   <v>       0.00001060       0.00139273      -0.00278061 </v>
   <v>       0.00001446       0.00138753      -0.00277690 </v>
   <v>      -0.00000793       0.00138857      -0.00277256 </v>
   <v>      -0.00001306      -0.00147704       0.00357050 </v>
   <v>       0.00001799      -0.00146150       0.00356807 </v>
   <v>      -0.00000080      -0.00148573       0.00357853 </v>
   <v>      -0.00000047      -0.00147707       0.00358078 </v>
   <v>       0.00001917      -0.00148163       0.00356519 </v>
   <v>      -0.00001884      -0.00147138       0.00355334 </v>
   <v>      -0.00000346      -0.00149061       0.00356690 </v>
   <v>       0.00000266      -0.00147897       0.00356130 </v>
  </varray>
  <varray name="stress" >
   <v>       0.42569622      -0.00000131      -0.00000020 </v>
   <v>      -0.00000136      -0.14360843      -0.02003803 </v>
   <v>      -0.00000028      -0.02003790      -0.12831129 </v>
  </varray>
  <energy>
   <i name="e_fr_energy">   -287.81510968 </i>
   <i name="e_wo_entrp">   -287.80794939 </i>
   <i name="e_0_energy">     -0.01432060 </i>
  </energy>
  <scstep>
   <time name="total">   13.55   13.58</time>
   <energy>
    <i name="e_fr_energy">   -113.06231225 </i>
    <i name="e_wo_entrp">   -113.06231237 </i>
    <i name="e_0_energy">   -113.06231231 </i>
   </energy>
  </scstep>
  <scstep>
   <time name="total">   12.50   12.50</time>
   <energy>
    <i name="e_fr_energy">   -107.77929140 </i>
    <i name="e_wo_entrp">   -107.77929152 </i>
    <i name="e_0_energy">   -107.77929146 </i>
   </energy>
  </scstep>
  <scstep>
   <time name="total">   12.48   12.48</time>
   <energy>
    <i name="e_fr_energy">   -107.96205482 </i>
    <i name="e_wo_entrp">   -107.96205511 </i>
    <i name="e_0_energy">   -107.96205497 </i>
   </energy>
  </scstep>
  <scstep>
   <time name="total">   12.29   12.37</time>
   <energy>
    <i name="e_fr_energy">   -107.75232758 </i>
    <i name="e_wo_entrp">   -107.75232853 </i>
    <i name="e_0_energy">   -107.75232805 </i>
   </energy>
  </scstep>
  <scstep>
   <time name="total">   12.65   12.65</time>
   <energy>
    <i name="e_fr_energy">   -107.59006440 </i>
    <i name="e_wo_entrp">   -107.59006245 </i>
    <i name="e_0_energy">   -107.59006343 </i>
   </energy>
  </scstep>
  <scstep>
   <time name="total">   12.58   12.62</time>
   <energy>
    <i name="e_fr_energy">   -107.60226956 </i>
    <i name="e_wo_entrp">   -107.60227048 </i>
    <i name="e_0_energy">   -107.60227002 </i>
   </energy>
  </scstep>
  <scstep>
   <time name="total">   12.24   12.24</time>
   <energy>
    <i name="e_fr_energy">   -107.61195059 </i>
    <i name="e_wo_entrp">   -107.61195141 </i>
    <i name="e_0_energy">   -107.61195100 </i>
   </energy>
  </scstep>
  <scstep>
   <time name="total">   12.76   12.76</time>
   <energy>
    <i name="e_fr_energy">   -107.62522152 </i>
    <i name="e_wo_entrp">   -107.62522088 </i>
    <i name="e_0_energy">   -107.62522120 </i>
   </energy>
  </scstep>
  <scstep>
   <time name="total">   12.76   12.79</time>
   <energy>
    <i name="e_fr_energy">   -107.62904136 </i>
    <i name="e_wo_entrp">   -107.62904107 </i>
    <i name="e_0_energy">   -107.62904122 </i>
   </energy>
  </scstep>
  <scstep>
   <time name="total">   12.80   12.80</time>
   <energy>
    <i name="e_fr_energy">   -107.62762731 </i>
    <i name="e_wo_entrp">   -107.62762769 </i>
    <i name="e_0_energy">   -107.62762750 </i>
   </energy>
  </scstep>
  <scstep>
   <time name="total">   13.70   13.73</time>
   <energy>
    <i name="e_fr_energy">   -111.60372583 </i>
    <i name="e_wo_entrp">   -111.60652811 </i>
    <i name="e_0_energy">   -111.60512697 </i>
   </energy>
  </scstep>
  <scstep>
   <time name="total">   12.36   12.37</time>
   <energy>
    <i name="e_fr_energy">   -108.19742844 </i>
    <i name="e_wo_entrp">   -108.20023072 </i>
    <i name="e_0_energy">   -108.19882958 </i>
   </energy>
  </scstep>
  <scstep>
   <time name="total">   12.90   12.93</time>
   <energy>
    <i name="e_fr_energy">   -108.40003360 </i>
    <i name="e_wo_entrp">   -108.40260211 </i>
    <i name="e_0_energy">   -108.40131786 </i>
   </energy>
  </scstep>
  <scstep>
   <time name="total">   12.24   12.25</time>
   <energy>
    <i name="e_fr_energy">   -108.22844460 </i>
    <i name="e_wo_entrp">   -108.23093395 </i>
    <i name="e_0_energy">   -108.22968927 </i>
   </energy>
  </scstep>
  <scstep>
   <time name="total">   12.83   12.83</time>
   <energy>
    <i name="e_fr_energy">   -108.11801817 </i>
    <i name="e_wo_entrp">   -108.12019766 </i>
    <i name="e_0_energy">   -108.11910792 </i>
   </energy>
  </scstep>
  <scstep>
   <time name="total">   12.58   12.63</time>
   <energy>
    <i name="e_fr_energy">   -108.11970887 </i>
    <i name="e_wo_entrp">   -108.12192907 </i>
    <i name="e_0_energy">   -108.12081897 </i>
   </energy>
  </scstep>
  <scstep>
   <time name="total">   12.65   12.65</time>
   <energy>
    <i name="e_fr_energy">   -108.13434901 </i>
    <i name="e_wo_entrp">   -108.13659995 </i>
    <i name="e_0_energy">   -108.13547448 </i>
   </energy>
  </scstep>
  <scstep>
   <time name="total">   12.95   12.98</time>
   <energy>
    <i name="e_fr_energy">   -108.14619329 </i>
    <i name="e_wo_entrp">   -108.14844890 </i>
    <i name="e_0_energy">   -108.14732109 </i>
   </energy>
  </scstep>
  <scstep>
   <time name="total">   12.60   12.60</time>
   <energy>
    <i name="e_fr_energy">   -108.15311814 </i>
    <i name="e_wo_entrp">   -108.15538902 </i>
    <i name="e_0_energy">   -108.15425358 </i>
   </energy>
  </scstep>
  <scstep>
   <time name="total">   13.03   13.08</time>
   <energy>
    <i name="e_fr_energy">   -108.15369529 </i>
    <i name="e_wo_entrp">   -108.15597911 </i>
    <i name="e_0_energy">   -108.15483720 </i>
   </energy>
  </scstep>
  <scstep>
   <time name="total">   13.83   13.83</time>
   <energy>
    <i name="e_fr_energy">   -117.18057145 </i>
    <i name="e_wo_entrp">   -117.17987211 </i>
    <i name="e_0_energy">   -117.18022178 </i>
   </energy>
  </scstep>
  <scstep>
   <time name="total">   12.75   12.87</time>
   <energy>
    <i name="e_fr_energy">   -110.83248813 </i>
    <i name="e_wo_entrp">   -110.83178879 </i>
    <i name="e_0_energy">   -110.83213846 </i>
   </energy>
  </scstep>
  <scstep>
   <time name="total">   12.72   12.72</time>
   <energy>
    <i name="e_fr_energy">   -111.02442775 </i>
    <i name="e_wo_entrp">   -111.02142783 </i>
    <i name="e_0_energy">   -111.02292779 </i>
   </energy>
  </scstep>
  <scstep>
   <time name="total">   12.22   12.22</time>
   <energy>
    <i name="e_fr_energy">   -110.58147301 </i>
    <i name="e_wo_entrp">   -110.57943594 </i>
    <i name="e_0_energy">   -110.58045447 </i>
   </energy>
  </scstep>
  <scstep>
   <time name="total">   12.67   12.77</time>
   <energy>
    <i name="e_fr_energy">   -110.39330588 </i>
    <i name="e_wo_entrp">   -110.39307048 </i>
    <i name="e_0_energy">   -110.39318818 </i>
   </energy>
  </scstep>
  <scstep>
   <time name="total">   12.71   13.01</time>
   <energy>
    <i name="e_fr_energy">   -110.33962514 </i>
    <i name="e_wo_entrp">   -110.33814494 </i>
    <i name="e_0_energy">   -110.33888504 </i>
   </energy>
  </scstep>
  <scstep>
   <time name="total">   12.67   12.77</time>
   <energy>
    <i name="e_fr_energy">   -110.34322025 </i>
    <i name="e_wo_entrp">   -110.34155077 </i>
    <i name="e_0_energy">   -110.34238551 </i>
   </energy>
  </scstep>
  <scstep>
   <time name="total">   12.81   12.81</time>
   <energy>
    <i name="e_fr_energy">   -110.34166613 </i>
    <i name="e_wo_entrp">   -110.34023120 </i>
    <i name="e_0_energy">   -110.34094866 </i>
   </energy>
  </scstep>
  <scstep>
   <time name="total">   13.64   13.68</time>
   <energy>
    <i name="e_fr_energy">   -113.06224306 </i>
    <i name="e_wo_entrp">   -113.06224298 </i>
    <i name="e_0_energy">   -113.06224302 </i>
   </energy>
  </scstep>
  <scstep>
   <time name="total">   12.70   12.70</time>
   <energy>
    <i name="e_fr_energy">   -107.77866579 </i>
    <i name="e_wo_entrp">   -107.77866571 </i>
    <i name="e_0_energy">   -107.77866575 </i>
   </energy>
  </scstep>
  <scstep>
   <time name="total">   12.70   12.70</time>
   <energy>
    <i name="e_fr_energy">   -107.96181044 </i>
    <i name="e_wo_entrp">   -107.96180949 </i>
    <i name="e_0_energy">   -107.96180997 </i>
   </energy>
  </scstep>
  <scstep>
   <time name="total">   12.42   12.45</time>
   <energy>
    <i name="e_fr_energy">   -107.75246877 </i>
    <i name="e_wo_entrp">   -107.75246884 </i>
    <i name="e_0_energy">   -107.75246880 </i>
   </energy>
  </scstep>
  <scstep>
   <time name="total">   12.77   12.77</time>
   <energy>
    <i name="e_fr_energy">   -107.59000554 </i>
    <i name="e_wo_entrp">   -107.59000524 </i>
    <i name="e_0_energy">   -107.59000539 </i>
   </energy>
  </scstep>
  <scstep>
   <time name="total">   12.69   12.72</time>
   <energy>
    <i name="e_fr_energy">   -107.60236705 </i>
    <i name="e_wo_entrp">   -107.60236663 </i>
    <i name="e_0_energy">   -107.60236684 </i>
   </energy>
  </scstep>
  <scstep>
   <time name="total">   12.43   12.44</time>
   <energy>
    <i name="e_fr_energy">   -107.61197743 </i>
    <i name="e_wo_entrp">   -107.61197731 </i>
    <i name="e_0_energy">   -107.61197737 </i>
   </energy>
  </scstep>
  <scstep>
   <time name="total">   12.98   13.02</time>
   <energy>
    <i name="e_fr_energy">   -107.62523740 </i>
    <i name="e_wo_entrp">   -107.62523726 </i>
    <i name="e_0_energy">   -107.62523733 </i>
   </energy>
  </scstep>
  <scstep>
   <time name="total">   12.94   12.94</time>
   <energy>
    <i name="e_fr_energy">   -107.62905154 </i>
    <i name="e_wo_entrp">   -107.62905148 </i>
    <i name="e_0_energy">   -107.62905151 </i>
   </energy>
  </scstep>
  <scstep>
   <time name="total">   12.98   12.98</time>
   <energy>
    <i name="e_fr_energy">   -107.62763545 </i>
    <i name="e_wo_entrp">   -107.62763540 </i>
    <i name="e_0_energy">   -107.62763543 </i>
   </energy>
  </scstep>
  <scstep>
   <time name="total">   13.98   14.02</time>
   <energy>
    <i name="e_fr_energy">   -111.60371538 </i>
    <i name="e_wo_entrp">   -111.60651761 </i>
    <i name="e_0_energy">   -111.60511650 </i>
   </energy>
  </scstep>
  <scstep>
   <time name="total">   12.43   12.43</time>
   <energy>
    <i name="e_fr_energy">   -108.19805475 </i>
    <i name="e_wo_entrp">   -108.20085698 </i>
    <i name="e_0_energy">   -108.19945587 </i>
   </energy>
  </scstep>
  <scstep>
   <time name="total">   12.88   12.91</time>
   <energy>
    <i name="e_fr_energy">   -108.39995659 </i>
    <i name="e_wo_entrp">   -108.40252584 </i>
    <i name="e_0_energy">   -108.40124122 </i>
   </energy>
  </scstep>
  <scstep>
   <time name="total">   12.26   12.27</time>
   <energy>
    <i name="e_fr_energy">   -108.22840977 </i>
    <i name="e_wo_entrp">   -108.23089930 </i>
    <i name="e_0_energy">   -108.22965454 </i>
   </energy>
  </scstep>
  <scstep>
   <time name="total">   12.91   12.94</time>
   <energy>
    <i name="e_fr_energy">   -108.11806134 </i>
    <i name="e_wo_entrp">   -108.12024130 </i>
    <i name="e_0_energy">   -108.11915132 </i>
   </energy>
  </scstep>
  <scstep>
   <time name="total">   12.59   12.59</time>
   <energy>
    <i name="e_fr_energy">   -108.11970082 </i>
    <i name="e_wo_entrp">   -108.12192090 </i>
    <i name="e_0_energy">   -108.12081086 </i>
   </energy>
  </scstep>
  <scstep>
   <time name="total">   12.69   12.69</time>
   <energy>
    <i name="e_fr_energy">   -108.13433692 </i>
    <i name="e_wo_entrp">   -108.13658760 </i>
    <i name="e_0_energy">   -108.13546226 </i>
   </energy>
  </scstep>
  <scstep>
   <time name="total">   12.94   12.98</time>
   <energy>
    <i name="e_fr_energy">   -108.14617182 </i>
    <i name="e_wo_entrp">   -108.14842753 </i>
    <i name="e_0_energy">   -108.14729968 </i>
   </energy>
  </scstep>
  <scstep>
   <time name="total">   12.61   12.63</time>
   <energy>
    <i name="e_fr_energy">   -108.15309197 </i>
    <i name="e_wo_entrp">   -108.15536296 </i>
    <i name="e_0_energy">   -108.15422747 </i>
   </energy>
  </scstep>
  <scstep>
   <time name="total">   13.11   13.14</time>
   <energy>
    <i name="e_fr_energy">   -108.15365880 </i>
    <i name="e_wo_entrp">   -108.15594246 </i>
    <i name="e_0_energy">   -108.15480063 </i>
   </energy>
  </scstep>
  <scstep>
   <time name="total">   13.75   13.75</time>
   <energy>
    <i name="e_fr_energy">   -117.18508776 </i>
    <i name="e_wo_entrp">   -117.18438851 </i>
    <i name="e_0_energy">   -117.18473814 </i>
   </energy>
  </scstep>
  <scstep>
   <time name="total">   12.90   12.93</time>
   <energy>
    <i name="e_fr_energy">   -110.83199595 </i>
    <i name="e_wo_entrp">   -110.83129670 </i>
    <i name="e_0_energy">   -110.83164633 </i>
   </energy>
  </scstep>
  <scstep>
   <time name="total">   12.72   12.72</time>
   <energy>
    <i name="e_fr_energy">   -111.02500643 </i>
    <i name="e_wo_entrp">   -111.02200587 </i>
    <i name="e_0_energy">   -111.02350615 </i>
   </energy>
  </scstep>
  <scstep>
   <time name="total">   12.20   12.23</time>
   <energy>
    <i name="e_fr_energy">   -110.58143162 </i>
    <i name="e_wo_entrp">   -110.57939460 </i>
    <i name="e_0_energy">   -110.58041311 </i>
   </energy>
  </scstep>
  <scstep>
   <time name="total">   12.66   12.67</time>
   <energy>
    <i name="e_fr_energy">   -110.39300053 </i>
    <i name="e_wo_entrp">   -110.39276290 </i>
    <i name="e_0_energy">   -110.39288171 </i>
   </energy>
  </scstep>
  <scstep>
   <time name="total">   12.61   12.62</time>
   <energy>
    <i name="e_fr_energy">   -110.33967939 </i>
    <i name="e_wo_entrp">   -110.33819718 </i>
    <i name="e_0_energy">   -110.33893829 </i>
   </energy>
  </scstep>
  <scstep>
   <time name="total">   12.69   12.72</time>
   <energy>
    <i name="e_fr_energy">   -110.34320623 </i>
    <i name="e_wo_entrp">   -110.34153708 </i>
    <i name="e_0_energy">   -110.34237166 </i>
   </energy>
  </scstep>
  <scstep>
   <time name="total">   12.75   12.75</time>
   <energy>
    <i name="e_fr_energy">   -110.34162170 </i>
    <i name="e_wo_entrp">   -110.34018748 </i>
    <i name="e_0_energy">   -110.34090459 </i>
   </energy>
  </scstep>
  <scstep>
   <time name="total">   13.63   13.66</time>
   <energy>
    <i name="e_fr_energy">   -113.06228557 </i>
    <i name="e_wo_entrp">   -113.06228553 </i>
    <i name="e_0_energy">   -113.06228555 </i>
   </energy>
  </scstep>
  <scstep>
   <time name="total">   12.68   12.68</time>
   <energy>
    <i name="e_fr_energy">   -107.77802875 </i>
    <i name="e_wo_entrp">   -107.77802871 </i>
    <i name="e_0_energy">   -107.77802873 </i>
   </energy>
  </scstep>
  <scstep>
   <time name="total">   12.81   12.84</time>
   <energy>
    <i name="e_fr_energy">   -107.96318434 </i>
    <i name="e_wo_entrp">   -107.96318511 </i>
    <i name="e_0_energy">   -107.96318473 </i>
   </energy>
  </scstep>
  <scstep>
   <time name="total">   12.53   12.54</time>
   <energy>
    <i name="e_fr_energy">   -107.75271421 </i>
    <i name="e_wo_entrp">   -107.75271392 </i>
    <i name="e_0_energy">   -107.75271406 </i>
   </energy>
  </scstep>
  <scstep>
   <time name="total">   12.82   12.85</time>
   <energy>
    <i name="e_fr_energy">   -107.59005675 </i>
    <i name="e_wo_entrp">   -107.59005759 </i>
    <i name="e_0_energy">   -107.59005717 </i>
   </energy>
  </scstep>
  <scstep>
   <time name="total">   12.71   12.72</time>
   <energy>
    <i name="e_fr_energy">   -107.60214649 </i>
    <i name="e_wo_entrp">   -107.60214654 </i>
    <i name="e_0_energy">   -107.60214652 </i>
   </energy>
  </scstep>
  <scstep>
   <time name="total">   12.44   12.44</time>
   <energy>
    <i name="e_fr_energy">   -107.61187599 </i>
    <i name="e_wo_entrp">   -107.61187577 </i>
    <i name="e_0_energy">   -107.61187588 </i>
   </energy>
  </scstep>
  <scstep>
   <time name="total">   13.03   13.06</time>
   <energy>
    <i name="e_fr_energy">   -107.62511110 </i>
    <i name="e_wo_entrp">   -107.62511131 </i>
    <i name="e_0_energy">   -107.62511121 </i>
   </energy>
  </scstep>
  <scstep>
   <time name="total">   12.92   12.93</time>
   <energy>
    <i name="e_fr_energy">   -107.62900743 </i>
    <i name="e_wo_entrp">   -107.62900751 </i>
    <i name="e_0_energy">   -107.62900747 </i>
   </energy>
  </scstep>
  <scstep>
   <time name="total">   13.09   13.11</time>
   <energy>
    <i name="e_fr_energy">   -107.62759163 </i>
    <i name="e_wo_entrp">   -107.62759148 </i>
    <i name="e_0_energy">   -107.62759156 </i>
   </energy>
  </scstep>
  <scstep>
   <time name="total">   13.70   13.70</time>
   <energy>
    <i name="e_fr_energy">   -111.60373315 </i>
    <i name="e_wo_entrp">   -111.60653541 </i>
    <i name="e_0_energy">   -111.60513428 </i>
   </energy>
  </scstep>
  <scstep>
   <time name="total">   12.50   12.53</time>
   <energy>
    <i name="e_fr_energy">   -108.19662170 </i>
    <i name="e_wo_entrp">   -108.19942395 </i>
    <i name="e_0_energy">   -108.19802283 </i>
   </energy>
  </scstep>
  <scstep>
   <time name="total">   12.93   13.23</time>
   <energy>
    <i name="e_fr_energy">   -108.39961342 </i>
    <i name="e_wo_entrp">   -108.40218230 </i>
    <i name="e_0_energy">   -108.40089786 </i>
   </energy>
  </scstep>
  <scstep>
   <time name="total">   12.30   12.30</time>
   <energy>
    <i name="e_fr_energy">   -108.22873186 </i>
    <i name="e_wo_entrp">   -108.23122181 </i>
    <i name="e_0_energy">   -108.22997684 </i>
   </energy>
  </scstep>
  <scstep>
   <time name="total">   12.86   12.89</time>
   <energy>
    <i name="e_fr_energy">   -108.11802758 </i>
    <i name="e_wo_entrp">   -108.12020575 </i>
    <i name="e_0_energy">   -108.11911667 </i>
   </energy>
  </scstep>
  <scstep>
   <time name="total">   12.61   12.61</time>
   <energy>
    <i name="e_fr_energy">   -108.11977574 </i>
    <i name="e_wo_entrp">   -108.12199639 </i>
    <i name="e_0_energy">   -108.12088606 </i>
   </energy>
  </scstep>
  <scstep>
   <time name="total">   12.81   12.84</time>
   <energy>
    <i name="e_fr_energy">   -108.13435692 </i>
    <i name="e_wo_entrp">   -108.13660862 </i>
    <i name="e_0_energy">   -108.13548277 </i>
   </energy>
  </scstep>
  <scstep>
   <time name="total">   12.93   12.93</time>
   <energy>
    <i name="e_fr_energy">   -108.14630527 </i>
    <i name="e_wo_entrp">   -108.14856042 </i>
    <i name="e_0_energy">   -108.14743284 </i>
   </energy>
  </scstep>
  <scstep>
   <time name="total">   12.58   12.63</time>
   <energy>
    <i name="e_fr_energy">   -108.15306610 </i>
    <i name="e_wo_entrp">   -108.15533670 </i>
    <i name="e_0_energy">   -108.15420140 </i>
   </energy>
  </scstep>
  <scstep>
   <time name="total">   13.08   13.09</time>
   <energy>
    <i name="e_fr_energy">   -108.15365861 </i>
    <i name="e_wo_entrp">   -108.15594274 </i>
    <i name="e_0_energy">   -108.15480067 </i>
   </energy>
  </scstep>
  <scstep>
   <time name="total">   13.81   13.84</time>
   <energy>
    <i name="e_fr_energy">   -117.18055262 </i>
    <i name="e_wo_entrp">   -117.17985328 </i>
    <i name="e_0_energy">   -117.18020295 </i>
   </energy>
  </scstep>
  <scstep>
   <time name="total">   12.81   12.81</time>
   <energy>
    <i name="e_fr_energy">   -110.83065871 </i>
    <i name="e_wo_entrp">   -110.82995937 </i>
    <i name="e_0_energy">   -110.83030904 </i>
   </energy>
  </scstep>
  <scstep>
   <time name="total">   12.72   12.73</time>
   <energy>
    <i name="e_fr_energy">   -111.02481255 </i>
    <i name="e_wo_entrp">   -111.02181344 </i>
    <i name="e_0_energy">   -111.02331299 </i>
   </energy>
  </scstep>
  <scstep>
   <time name="total">   12.21   12.24</time>
   <energy>
    <i name="e_fr_energy">   -110.58165905 </i>
    <i name="e_wo_entrp">   -110.57962147 </i>
    <i name="e_0_energy">   -110.58064026 </i>
   </energy>
  </scstep>
  <scstep>
   <time name="total">   12.71   12.71</time>
   <energy>
    <i name="e_fr_energy">   -110.39369931 </i>
    <i name="e_wo_entrp">   -110.39346387 </i>
    <i name="e_0_energy">   -110.39358159 </i>
   </energy>
  </scstep>
  <scstep>
   <time name="total">   12.72   12.74</time>
   <energy>
    <i name="e_fr_energy">   -110.33985585 </i>
    <i name="e_wo_entrp">   -110.33837364 </i>
    <i name="e_0_energy">   -110.33911474 </i>
   </energy>
  </scstep>
  <scstep>
   <time name="total">   12.74   12.74</time>
   <energy>
    <i name="e_fr_energy">   -110.34339696 </i>
    <i name="e_wo_entrp">   -110.34172660 </i>
    <i name="e_0_energy">   -110.34256178 </i>
   </energy>
  </scstep>
  <scstep>
   <time name="total">   12.87   12.88</time>
   <energy>
    <i name="e_fr_energy">   -110.34171350 </i>
    <i name="e_wo_entrp">   -110.34027860 </i>
    <i name="e_0_energy">   -110.34099605 </i>
   </energy>
  </scstep>
  <scstep>
   <time name="total">   13.67   13.67</time>
   <energy>
    <i name="e_fr_energy">   -113.06224311 </i>
    <i name="e_wo_entrp">   -113.06224311 </i>
    <i name="e_0_energy">   -113.06224311 </i>
   </energy>
  </scstep>
  <scstep>
   <time name="total">   12.65   12.66</time>
   <energy>
    <i name="e_fr_energy">   -107.77775395 </i>
    <i name="e_wo_entrp">   -107.77775394 </i>
    <i name="e_0_energy">   -107.77775394 </i>
   </energy>
  </scstep>
  <scstep>
   <time name="total">   12.65   12.68</time>
   <energy>
    <i name="e_fr_energy">   -107.96315792 </i>
    <i name="e_wo_entrp">   -107.96315734 </i>
    <i name="e_0_energy">   -107.96315763 </i>
   </energy>
  </scstep>
  <scstep>
   <time name="total">   12.44   12.44</time>
   <energy>
    <i name="e_fr_energy">   -107.75270748 </i>
    <i name="e_wo_entrp">   -107.75270667 </i>
    <i name="e_0_energy">   -107.75270707 </i>
   </energy>
  </scstep>
  <scstep>
   <time name="total">   12.80   12.82</time>
   <energy>
    <i name="e_fr_energy">   -107.59008199 </i>
    <i name="e_wo_entrp">   -107.59008418 </i>
    <i name="e_0_energy">   -107.59008309 </i>
   </energy>
  </scstep>
  <scstep>
   <time name="total">   12.64   12.65</time>
   <energy>
    <i name="e_fr_energy">   -107.60211328 </i>
    <i name="e_wo_entrp">   -107.60211268 </i>
    <i name="e_0_energy">   -107.60211298 </i>
   </energy>
  </scstep>
  <scstep>
   <time name="total">   12.42   12.42</time>
   <energy>
    <i name="e_fr_energy">   -107.61188841 </i>
    <i name="e_wo_entrp">   -107.61188775 </i>
    <i name="e_0_energy">   -107.61188808 </i>
   </energy>
  </scstep>
  <scstep>
   <time name="total">   13.02   13.04</time>
   <energy>
    <i name="e_fr_energy">   -107.62511203 </i>
    <i name="e_wo_entrp">   -107.62511269 </i>
    <i name="e_0_energy">   -107.62511236 </i>
   </energy>
  </scstep>
  <scstep>
   <time name="total">   12.92   12.92</time>
   <energy>
    <i name="e_fr_energy">   -107.62899760 </i>
    <i name="e_wo_entrp">   -107.62899793 </i>
    <i name="e_0_energy">   -107.62899777 </i>
   </energy>
  </scstep>
  <scstep>
   <time name="total">   13.00   13.03</time>
   <energy>
    <i name="e_fr_energy">   -107.62758000 </i>
    <i name="e_wo_entrp">   -107.62757970 </i>
    <i name="e_0_energy">   -107.62757985 </i>
   </energy>
  </scstep>
  <scstep>
   <time name="total">   13.72   13.72</time>
   <energy>
    <i name="e_fr_energy">   -111.60374650 </i>
    <i name="e_wo_entrp">   -111.60654873 </i>
    <i name="e_0_energy">   -111.60514761 </i>
   </energy>
  </scstep>
  <scstep>
   <time name="total">   12.52   12.55</time>
   <energy>
    <i name="e_fr_energy">   -108.19660109 </i>
    <i name="e_wo_entrp">   -108.19940332 </i>
    <i name="e_0_energy">   -108.19800220 </i>
   </energy>
  </scstep>
  <scstep>
   <time name="total">   12.84   12.84</time>
   <energy>
    <i name="e_fr_energy">   -108.39970973 </i>
    <i name="e_wo_entrp">   -108.40227727 </i>
    <i name="e_0_energy">   -108.40099350 </i>
   </energy>
  </scstep>
  <scstep>
   <time name="total">   12.31   12.34</time>
   <energy>
    <i name="e_fr_energy">   -108.22863836 </i>
    <i name="e_wo_entrp">   -108.23112795 </i>
    <i name="e_0_energy">   -108.22988315 </i>
   </energy>
  </scstep>
  <scstep>
   <time name="total">   12.90   12.90</time>
   <energy>
    <i name="e_fr_energy">   -108.11805524 </i>
    <i name="e_wo_entrp">   -108.12023235 </i>
    <i name="e_0_energy">   -108.11914380 </i>
   </energy>
  </scstep>
  <scstep>
   <time name="total">   12.77   12.97</time>
   <energy>
    <i name="e_fr_energy">   -108.11971720 </i>
    <i name="e_wo_entrp">   -108.12193772 </i>
    <i name="e_0_energy">   -108.12082746 </i>
   </energy>
  </scstep>
  <scstep>
   <time name="total">   12.72   12.76</time>
   <energy>
    <i name="e_fr_energy">   -108.13432524 </i>
    <i name="e_wo_entrp">   -108.13657704 </i>
    <i name="e_0_energy">   -108.13545114 </i>
   </energy>
  </scstep>
  <scstep>
   <time name="total">   12.95   12.95</time>
   <energy>
    <i name="e_fr_energy">   -108.14623081 </i>
    <i name="e_wo_entrp">   -108.14848559 </i>
    <i name="e_0_energy">   -108.14735820 </i>
   </energy>
  </scstep>
  <scstep>
   <time name="total">   12.66   12.69</time>
   <energy>
    <i name="e_fr_energy">   -108.15302740 </i>
    <i name="e_wo_entrp">   -108.15529764 </i>
    <i name="e_0_energy">   -108.15416252 </i>
   </energy>
  </scstep>
  <scstep>
   <time name="total">   13.10   13.11</time>
   <energy>
    <i name="e_fr_energy">   -108.15364906 </i>
    <i name="e_wo_entrp">   -108.15593324 </i>
    <i name="e_0_energy">   -108.15479115 </i>
   </energy>
  </scstep>
  <scstep>
   <time name="total">   13.80   13.82</time>
   <energy>
    <i name="e_fr_energy">   -117.18508388 </i>
    <i name="e_wo_entrp">   -117.18438461 </i>
    <i name="e_0_energy">   -117.18473425 </i>
   </energy>
  </scstep>
  <scstep>
   <time name="total">   12.79   12.79</time>
   <energy>
    <i name="e_fr_energy">   -110.83111120 </i>
    <i name="e_wo_entrp">   -110.83041193 </i>
    <i name="e_0_energy">   -110.83076156 </i>
   </energy>
  </scstep>
  <scstep>
   <time name="total">   12.79   12.82</time>
   <energy>
    <i name="e_fr_energy">   -111.02497745 </i>
    <i name="e_wo_entrp">   -111.02197842 </i>
    <i name="e_0_energy">   -111.02347793 </i>
   </energy>
  </scstep>
  <scstep>
   <time name="total">   12.17   12.17</time>
   <energy>
    <i name="e_fr_energy">   -110.58146425 </i>
    <i name="e_wo_entrp">   -110.57942627 </i>
    <i name="e_0_energy">   -110.58044526 </i>
   </energy>
  </scstep>
  <scstep>
   <time name="total">   12.72   12.72</time>
   <energy>
    <i name="e_fr_energy">   -110.39387691 </i>
    <i name="e_wo_entrp">   -110.39364363 </i>
    <i name="e_0_energy">   -110.39376027 </i>
   </energy>
  </scstep>
  <scstep>
   <time name="total">   12.66   12.69</time>
   <energy>
    <i name="e_fr_energy">   -110.33957947 </i>
    <i name="e_wo_entrp">   -110.33809964 </i>
    <i name="e_0_energy">   -110.33883956 </i>
   </energy>
  </scstep>
  <scstep>
   <time name="total">   12.66   12.66</time>
   <energy>
    <i name="e_fr_energy">   -110.34324610 </i>
    <i name="e_wo_entrp">   -110.34157530 </i>
    <i name="e_0_energy">   -110.34241070 </i>
   </energy>
  </scstep>
  <scstep>
   <time name="total">   12.80   12.83</time>
   <energy>
    <i name="e_fr_energy">   -110.34162895 </i>
    <i name="e_wo_entrp">   -110.34019336 </i>
    <i name="e_0_energy">   -110.34091116 </i>
   </energy>
  </scstep>
  <scstep>
   <time name="total">   13.69   13.94</time>
   <energy>
    <i name="e_fr_energy">   -113.06228309 </i>
    <i name="e_wo_entrp">   -113.06228300 </i>
    <i name="e_0_energy">   -113.06228304 </i>
   </energy>
  </scstep>
  <scstep>
   <time name="total">   12.73   12.77</time>
   <energy>
    <i name="e_fr_energy">   -107.77906376 </i>
    <i name="e_wo_entrp">   -107.77906366 </i>
    <i name="e_0_energy">   -107.77906371 </i>
   </energy>
  </scstep>
  <scstep>
   <time name="total">   12.64   12.64</time>
   <energy>
    <i name="e_fr_energy">   -107.96180590 </i>
    <i name="e_wo_entrp">   -107.96180673 </i>
    <i name="e_0_energy">   -107.96180631 </i>
   </energy>
  </scstep>
  <scstep>
   <time name="total">   12.40   12.42</time>
   <energy>
    <i name="e_fr_energy">   -107.75236256 </i>
    <i name="e_wo_entrp">   -107.75236337 </i>
    <i name="e_0_energy">   -107.75236297 </i>
   </energy>
  </scstep>
  <scstep>
   <time name="total">   12.76   12.78</time>
   <energy>
    <i name="e_fr_energy">   -107.59002496 </i>
    <i name="e_wo_entrp">   -107.59002299 </i>
    <i name="e_0_energy">   -107.59002398 </i>
   </energy>
  </scstep>
  <scstep>
   <time name="total">   12.71   12.71</time>
   <energy>
    <i name="e_fr_energy">   -107.60226370 </i>
    <i name="e_wo_entrp">   -107.60226422 </i>
    <i name="e_0_energy">   -107.60226396 </i>
   </energy>
  </scstep>
  <scstep>
   <time name="total">   12.36   12.47</time>
   <energy>
    <i name="e_fr_energy">   -107.61192466 </i>
    <i name="e_wo_entrp">   -107.61192527 </i>
    <i name="e_0_energy">   -107.61192497 </i>
   </energy>
  </scstep>
  <scstep>
   <time name="total">   12.92   12.93</time>
   <energy>
    <i name="e_fr_energy">   -107.62518486 </i>
    <i name="e_wo_entrp">   -107.62518408 </i>
    <i name="e_0_energy">   -107.62518447 </i>
   </energy>
  </scstep>
  <scstep>
   <time name="total">   12.80   12.91</time>
   <energy>
    <i name="e_fr_energy">   -107.62900830 </i>
    <i name="e_wo_entrp">   -107.62900795 </i>
    <i name="e_0_energy">   -107.62900812 </i>
   </energy>
  </scstep>
  <scstep>
   <time name="total">   12.97   12.97</time>
   <energy>
    <i name="e_fr_energy">   -107.62759680 </i>
    <i name="e_wo_entrp">   -107.62759708 </i>
    <i name="e_0_energy">   -107.62759694 </i>
   </energy>
  </scstep>
  <scstep>
   <time name="total">   13.76   13.79</time>
   <energy>
    <i name="e_fr_energy">   -111.60372811 </i>
    <i name="e_wo_entrp">   -111.60653037 </i>
    <i name="e_0_energy">   -111.60512924 </i>
   </energy>
  </scstep>
  <scstep>
   <time name="total">   12.47   12.47</time>
   <energy>
    <i name="e_fr_energy">   -108.19798133 </i>
    <i name="e_wo_entrp">   -108.20078358 </i>
    <i name="e_0_energy">   -108.19938246 </i>
   </energy>
  </scstep>
  <scstep>
   <time name="total">   12.84   12.85</time>
   <energy>
    <i name="e_fr_energy">   -108.39968055 </i>
    <i name="e_wo_entrp">   -108.40224962 </i>
    <i name="e_0_energy">   -108.40096509 </i>
   </energy>
  </scstep>
  <scstep>
   <time name="total">   12.28   12.31</time>
   <energy>
    <i name="e_fr_energy">   -108.22828773 </i>
    <i name="e_wo_entrp">   -108.23077734 </i>
    <i name="e_0_energy">   -108.22953253 </i>
   </energy>
  </scstep>
  <scstep>
   <time name="total">   12.83   12.84</time>
   <energy>
    <i name="e_fr_energy">   -108.11794938 </i>
    <i name="e_wo_entrp">   -108.12012819 </i>
    <i name="e_0_energy">   -108.11903878 </i>
   </energy>
  </scstep>
  <scstep>
   <time name="total">   12.64   12.67</time>
   <energy>
    <i name="e_fr_energy">   -108.11962550 </i>
    <i name="e_wo_entrp">   -108.12184552 </i>
    <i name="e_0_energy">   -108.12073551 </i>
   </energy>
  </scstep>
  <scstep>
   <time name="total">   12.73   12.73</time>
   <energy>
    <i name="e_fr_energy">   -108.13424996 </i>
    <i name="e_wo_entrp">   -108.13650102 </i>
    <i name="e_0_energy">   -108.13537549 </i>
   </energy>
  </scstep>
  <scstep>
   <time name="total">   12.95   12.95</time>
   <energy>
    <i name="e_fr_energy">   -108.14612325 </i>
    <i name="e_wo_entrp">   -108.14837857 </i>
    <i name="e_0_energy">   -108.14725091 </i>
   </energy>
  </scstep>
  <scstep>
   <time name="total">   12.67   13.01</time>
   <energy>
    <i name="e_fr_energy">   -108.15303761 </i>
    <i name="e_wo_entrp">   -108.15530831 </i>
    <i name="e_0_energy">   -108.15417296 </i>
   </energy>
  </scstep>
  <scstep>
   <time name="total">   13.12   13.12</time>
   <energy>
    <i name="e_fr_energy">   -108.15361771 </i>
    <i name="e_wo_entrp">   -108.15590164 </i>
    <i name="e_0_energy">   -108.15475967 </i>
   </energy>
  </scstep>
  <scstep>
   <time name="total">   11.62   11.62</time>
   <energy>
    <i name="e_fr_energy">   -117.18563156 </i>
    <i name="e_wo_entrp">   -117.18493232 </i>
    <i name="e_0_energy">   -117.18528194 </i>
   </energy>
  </scstep>
  <scstep>
   <time name="total">   10.19   10.21</time>
   <energy>
    <i name="e_fr_energy">   -110.83233338 </i>
    <i name="e_wo_entrp">   -110.83163414 </i>
    <i name="e_0_energy">   -110.83198376 </i>
   </energy>
  </scstep>
  <scstep>
   <time name="total">   10.16   10.19</time>
   <energy>
    <i name="e_fr_energy">   -111.02412767 </i>
    <i name="e_wo_entrp">   -111.02112789 </i>
    <i name="e_0_energy">   -111.02262778 </i>
   </energy>
  </scstep>
  <scstep>
   <time name="total">    9.71    9.72</time>
   <energy>
    <i name="e_fr_energy">   -110.58138057 </i>
    <i name="e_wo_entrp">   -110.57934336 </i>
    <i name="e_0_energy">   -110.58036196 </i>
   </energy>
  </scstep>
  <scstep>
   <time name="total">   10.24   10.24</time>
   <energy>
    <i name="e_fr_energy">   -110.39317382 </i>
    <i name="e_wo_entrp">   -110.39293922 </i>
    <i name="e_0_energy">   -110.39305652 </i>
   </energy>
  </scstep>
  <scstep>
   <time name="total">   10.10   10.12</time>
   <energy>
    <i name="e_fr_energy">   -110.33954031 </i>
    <i name="e_wo_entrp">   -110.33805965 </i>
    <i name="e_0_energy">   -110.33879998 </i>
   </energy>
  </scstep>
  <scstep>
   <time name="total">   10.11   10.14</time>
   <energy>
    <i name="e_fr_energy">   -110.34310356 </i>
    <i name="e_wo_entrp">   -110.34143406 </i>
    <i name="e_0_energy">   -110.34226881 </i>
   </energy>
  </scstep>
  <scstep>
   <time name="total">   10.29   10.29</time>
   <energy>
    <i name="e_fr_energy">   -110.34156448 </i>
    <i name="e_wo_entrp">   -110.34012964 </i>
    <i name="e_0_energy">   -110.34084706 </i>
   </energy>
  </scstep>
  <scstep>
   <time name="total">   11.43   11.43</time>
   <energy>
    <i name="e_fr_energy">   -113.06228759 </i>
    <i name="e_wo_entrp">   -113.06228772 </i>
    <i name="e_0_energy">   -113.06228765 </i>
   </energy>
  </scstep>
  <scstep>
   <time name="total">   10.02   10.04</time>
   <energy>
    <i name="e_fr_energy">   -107.77922153 </i>
    <i name="e_wo_entrp">   -107.77922166 </i>
    <i name="e_0_energy">   -107.77922160 </i>
   </energy>
  </scstep>
  <scstep>
   <time name="total">   10.06   10.07</time>
   <energy>
    <i name="e_fr_energy">   -107.96213347 </i>
    <i name="e_wo_entrp">   -107.96213179 </i>
    <i name="e_0_energy">   -107.96213263 </i>
   </energy>
  </scstep>
  <scstep>
   <time name="total">    9.81    9.82</time>
   <energy>
    <i name="e_fr_energy">   -107.75234449 </i>
    <i name="e_wo_entrp">   -107.75234461 </i>
    <i name="e_0_energy">   -107.75234455 </i>
   </energy>
  </scstep>
  <scstep>
   <time name="total">   10.22   10.25</time>
   <energy>
    <i name="e_fr_energy">   -107.59008053 </i>
    <i name="e_wo_entrp">   -107.59008069 </i>
    <i name="e_0_energy">   -107.59008061 </i>
   </energy>
  </scstep>
  <scstep>
   <time name="total">   10.09   10.09</time>
   <energy>
    <i name="e_fr_energy">   -107.60228504 </i>
    <i name="e_wo_entrp">   -107.60228489 </i>
    <i name="e_0_energy">   -107.60228496 </i>
   </energy>
  </scstep>
  <scstep>
   <time name="total">   10.09   10.53</time>
   <energy>
    <i name="e_fr_energy">   -107.61195812 </i>
    <i name="e_wo_entrp">   -107.61195807 </i>
    <i name="e_0_energy">   -107.61195809 </i>
   </energy>
  </scstep>
  <scstep>
   <time name="total">   10.41   10.44</time>
   <energy>
    <i name="e_fr_energy">   -107.62522129 </i>
    <i name="e_wo_entrp">   -107.62522144 </i>
    <i name="e_0_energy">   -107.62522136 </i>
   </energy>
  </scstep>
  <scstep>
   <time name="total">   10.28   10.28</time>
   <energy>
    <i name="e_fr_energy">   -107.62904411 </i>
    <i name="e_wo_entrp">   -107.62904420 </i>
    <i name="e_0_energy">   -107.62904416 </i>
   </energy>
  </scstep>
  <scstep>
   <time name="total">   10.47   10.47</time>
   <energy>
    <i name="e_fr_energy">   -107.62763750 </i>
    <i name="e_wo_entrp">   -107.62763750 </i>
    <i name="e_0_energy">   -107.62763750 </i>
   </energy>
  </scstep>
  <scstep>
   <time name="total">   11.41   11.42</time>
   <energy>
    <i name="e_fr_energy">   -111.60372839 </i>
    <i name="e_wo_entrp">   -111.60653049 </i>
    <i name="e_0_energy">   -111.60512944 </i>
   </energy>
  </scstep>
  <scstep>
   <time name="total">    9.96    9.99</time>
   <energy>
    <i name="e_fr_energy">   -108.19774378 </i>
    <i name="e_wo_entrp">   -108.20054589 </i>
    <i name="e_0_energy">   -108.19914484 </i>
   </energy>
  </scstep>
  <scstep>
   <time name="total">   10.18   10.18</time>
   <energy>
    <i name="e_fr_energy">   -108.39963806 </i>
    <i name="e_wo_entrp">   -108.40220658 </i>
    <i name="e_0_energy">   -108.40092232 </i>
   </energy>
  </scstep>
  <scstep>
   <time name="total">    9.88    9.88</time>
   <energy>
    <i name="e_fr_energy">   -108.22846384 </i>
    <i name="e_wo_entrp">   -108.23095303 </i>
    <i name="e_0_energy">   -108.22970844 </i>
   </energy>
  </scstep>
  <scstep>
   <time name="total">   10.18   10.20</time>
   <energy>
    <i name="e_fr_energy">   -108.11805850 </i>
    <i name="e_wo_entrp">   -108.12023902 </i>
    <i name="e_0_energy">   -108.11914876 </i>
   </energy>
  </scstep>
  <scstep>
   <time name="total">   10.00   10.01</time>
   <energy>
    <i name="e_fr_energy">   -108.11974878 </i>
    <i name="e_wo_entrp">   -108.12196890 </i>
    <i name="e_0_energy">   -108.12085884 </i>
   </energy>
  </scstep>
  <scstep>
   <time name="total">   10.12   10.12</time>
   <energy>
    <i name="e_fr_energy">   -108.13438809 </i>
    <i name="e_wo_entrp">   -108.13663852 </i>
    <i name="e_0_energy">   -108.13551330 </i>
   </energy>
  </scstep>
  <scstep>
   <time name="total">   10.27   10.30</time>
   <energy>
    <i name="e_fr_energy">   -108.14620981 </i>
    <i name="e_wo_entrp">   -108.14846565 </i>
    <i name="e_0_energy">   -108.14733773 </i>
   </energy>
  </scstep>
  <scstep>
   <time name="total">   10.11   10.11</time>
   <energy>
    <i name="e_fr_energy">   -108.15312731 </i>
    <i name="e_wo_entrp">   -108.15539833 </i>
    <i name="e_0_energy">   -108.15426282 </i>
   </energy>
  </scstep>
  <scstep>
   <time name="total">   10.55   10.56</time>
   <energy>
    <i name="e_fr_energy">   -108.15367995 </i>
    <i name="e_wo_entrp">   -108.15596339 </i>
    <i name="e_0_energy">   -108.15482167 </i>
   </energy>
  </scstep>
  <scstep>
   <time name="total">   11.62   11.64</time>
   <energy>
    <i name="e_fr_energy">   -117.18111929 </i>
    <i name="e_wo_entrp">   -117.18042010 </i>
    <i name="e_0_energy">   -117.18076970 </i>
   </energy>
  </scstep>
  <scstep>
   <time name="total">   10.25   10.26</time>
   <energy>
    <i name="e_fr_energy">   -110.83214405 </i>
    <i name="e_wo_entrp">   -110.83144485 </i>
    <i name="e_0_energy">   -110.83179445 </i>
   </energy>
  </scstep>
  <scstep>
   <time name="total">   10.18   10.18</time>
   <energy>
    <i name="e_fr_energy">   -111.02509838 </i>
    <i name="e_wo_entrp">   -111.02209778 </i>
    <i name="e_0_energy">   -111.02359808 </i>
   </energy>
  </scstep>
  <scstep>
   <time name="total">    9.70    9.73</time>
   <energy>
    <i name="e_fr_energy">   -110.58141409 </i>
    <i name="e_wo_entrp">   -110.57937708 </i>
    <i name="e_0_energy">   -110.58039559 </i>
   </energy>
  </scstep>
  <scstep>
   <time name="total">   10.25   10.26</time>
   <energy>
    <i name="e_fr_energy">   -110.39309523 </i>
    <i name="e_wo_entrp">   -110.39285739 </i>
    <i name="e_0_energy">   -110.39297631 </i>
   </energy>
  </scstep>
  <scstep>
   <time name="total">   10.14   10.50</time>
   <energy>
    <i name="e_fr_energy">   -110.33963396 </i>
    <i name="e_wo_entrp">   -110.33815257 </i>
    <i name="e_0_energy">   -110.33889327 </i>
   </energy>
  </scstep>
  <scstep>
   <time name="total">   10.13   10.16</time>
   <energy>
    <i name="e_fr_energy">   -110.34320159 </i>
    <i name="e_wo_entrp">   -110.34153240 </i>
    <i name="e_0_energy">   -110.34236700 </i>
   </energy>
  </scstep>
  <scstep>
   <time name="total">   10.25   10.25</time>
   <energy>
    <i name="e_fr_energy">   -110.34162466 </i>
    <i name="e_wo_entrp">   -110.34019033 </i>
    <i name="e_0_energy">   -110.34090750 </i>
   </energy>
  </scstep>
  <scstep>
   <time name="total">   11.42   11.42</time>
   <energy>
    <i name="e_fr_energy">   -113.06226169 </i>
    <i name="e_wo_entrp">   -113.06226164 </i>
    <i name="e_0_energy">   -113.06226167 </i>
   </energy>
  </scstep>
  <scstep>
   <time name="total">   10.05   10.05</time>
   <energy>
    <i name="e_fr_energy">   -107.77863514 </i>
    <i name="e_wo_entrp">   -107.77863509 </i>
    <i name="e_0_energy">   -107.77863511 </i>
   </energy>
  </scstep>
  <scstep>
   <time name="total">   10.06   10.10</time>
   <energy>
    <i name="e_fr_energy">   -107.96358766 </i>
    <i name="e_wo_entrp">   -107.96358809 </i>
    <i name="e_0_energy">   -107.96358787 </i>
   </energy>
  </scstep>
  <scstep>
   <time name="total">    9.87    9.87</time>
   <energy>
    <i name="e_fr_energy">   -107.75251686 </i>
    <i name="e_wo_entrp">   -107.75251625 </i>
    <i name="e_0_energy">   -107.75251656 </i>
   </energy>
  </scstep>
  <scstep>
   <time name="total">   10.19   10.19</time>
   <energy>
    <i name="e_fr_energy">   -107.59007082 </i>
    <i name="e_wo_entrp">   -107.59007243 </i>
    <i name="e_0_energy">   -107.59007163 </i>
   </energy>
  </scstep>
  <scstep>
   <time name="total">   10.08   10.11</time>
   <energy>
    <i name="e_fr_energy">   -107.60201980 </i>
    <i name="e_wo_entrp">   -107.60201952 </i>
    <i name="e_0_energy">   -107.60201966 </i>
   </energy>
  </scstep>
  <scstep>
   <time name="total">    9.98    9.98</time>
   <energy>
    <i name="e_fr_energy">   -107.61180498 </i>
    <i name="e_wo_entrp">   -107.61180444 </i>
    <i name="e_0_energy">   -107.61180471 </i>
   </energy>
  </scstep>
  <scstep>
   <time name="total">   10.32   10.32</time>
   <energy>
    <i name="e_fr_energy">   -107.62505353 </i>
    <i name="e_wo_entrp">   -107.62505403 </i>
    <i name="e_0_energy">   -107.62505378 </i>
   </energy>
  </scstep>
  <scstep>
   <time name="total">   10.33   10.36</time>
   <energy>
    <i name="e_fr_energy">   -107.62895750 </i>
    <i name="e_wo_entrp">   -107.62895774 </i>
    <i name="e_0_energy">   -107.62895762 </i>
   </energy>
  </scstep>
  <scstep>
   <time name="total">   10.50   10.50</time>
   <energy>
    <i name="e_fr_energy">   -107.62755582 </i>
    <i name="e_wo_entrp">   -107.62755550 </i>
    <i name="e_0_energy">   -107.62755566 </i>
   </energy>
  </scstep>
  <scstep>
   <time name="total">   11.36   11.36</time>
   <energy>
    <i name="e_fr_energy">   -111.60371337 </i>
    <i name="e_wo_entrp">   -111.60651552 </i>
    <i name="e_0_energy">   -111.60511445 </i>
   </energy>
  </scstep>
  <scstep>
   <time name="total">    9.97    9.97</time>
   <energy>
    <i name="e_fr_energy">   -108.19594948 </i>
[...]
       <r>    0.8295    0.0000 </r>
       <r>    0.9055    0.0000 </r>
       <r>    1.2397    0.0000 </r>
       <r>    1.3398    0.0000 </r>
       <r>    1.4117    0.0000 </r>
       <r>    1.4140    0.0000 </r>
       <r>    1.4487    0.0000 </r>
       <r>    1.4699    0.0000 </r>
       <r>    1.5380    0.0000 </r>
       <r>    1.5545    0.0000 </r>
       <r>    1.5566    0.0000 </r>
       <r>    1.5793    0.0000 </r>
       <r>    1.7777    0.0000 </r>
       <r>    1.7995    0.0000 </r>
       <r>    1.8435    0.0000 </r>
       <r>    1.8840    0.0000 </r>
       <r>    1.9036    0.0000 </r>
       <r>    1.9428    0.0000 </r>
       <r>    1.9921    0.0000 </r>
       <r>    1.9981    0.0000 </r>
       <r>    2.0414    0.0000 </r>
       <r>    2.0974    0.0000 </r>
       <r>    2.0974    0.0000 </r>
       <r>    2.1110    0.0000 </r>
       <r>    2.1441    0.0000 </r>
       <r>    2.1906    0.0000 </r>
       <r>    2.2460    0.0000 </r>
       <r>    2.3561    0.0000 </r>
      </set>
     </set>
    </set>
   </array>
  </eigenvalues>
  <separator name="orbital magnetization" >
   <v name="MAGDIPOLOUT">      0.00000000      0.00000000      0.00000000</v>
  </separator>
  <dos>
   <i name="efermi">      0.44970007 </i>
   <total>
    <array>
     <dimension dim="1">gridpoints</dimension>
     <dimension dim="2">spin</dimension>
     <field>energy</field>
     <field>total</field>
     <field>integrated</field>
     <set>
      <set comment="spin 1">
       <r>   -13.1420     0.0000     0.0000 </r>
       <r>   -13.0877     0.0000     0.0000 </r>
       <r>   -13.0335     0.0000     0.0000 </r>
       <r>   -12.9792     0.0000     0.0000 </r>
       <r>   -12.9250     0.0000     0.0000 </r>
       <r>   -12.8707     0.0000     0.0000 </r>
       <r>   -12.8165     0.0000     0.0000 </r>
       <r>   -12.7622     0.0000     0.0000 </r>
       <r>   -12.7080     0.0000     0.0000 </r>
       <r>   -12.6537     0.0000     0.0000 </r>
       <r>   -12.5995     0.0000     0.0000 </r>
       <r>   -12.5452     0.0002     0.0000 </r>
       <r>   -12.4910     0.0553     0.0030 </r>
       <r>   -12.4367     1.4643     0.0824 </r>
       <r>   -12.3825     5.4880     0.3802 </r>
       <r>   -12.3282     8.1420     0.8218 </r>
       <r>   -12.2740    10.7063     1.4026 </r>
       <r>   -12.2197     7.0135     1.7831 </r>
       <r>   -12.1655     7.7026     2.2009 </r>
       <r>   -12.1112    11.5226     2.8260 </r>
       <r>   -12.0570    11.3367     3.4410 </r>
       <r>   -12.0027     8.8641     3.9219 </r>
       <r>   -11.9485     2.8516     4.0766 </r>
       <r>   -11.8943    11.5270     4.7019 </r>
       <r>   -11.8400    16.4397     5.5937 </r>
       <r>   -11.7858    12.3189     6.2620 </r>
       <r>   -11.7315     4.4066     6.5010 </r>
       <r>   -11.6773     4.5172     6.7460 </r>
       <r>   -11.6230    11.7941     7.3858 </r>
       <r>   -11.5688    13.3283     8.1089 </r>
       <r>   -11.5145    18.0655     9.0889 </r>
       <r>   -11.4603    26.1845    10.5093 </r>
       <r>   -11.4060    27.8532    12.0203 </r>
       <r>   -11.3518    26.9539    13.4825 </r>
       <r>   -11.2975    22.0803    14.6803 </r>
       <r>   -11.2433    18.5616    15.6872 </r>
       <r>   -11.1890    28.5184    17.2343 </r>
       <r>   -11.1348    39.3985    19.3716 </r>
       <r>   -11.0805    29.3699    20.9648 </r>
       <r>   -11.0263    16.4923    21.8595 </r>
       <r>   -10.9720    20.6582    22.9801 </r>
       <r>   -10.9178    26.2410    24.4037 </r>
       <r>   -10.8635    28.6826    25.9596 </r>
       <r>   -10.8093    30.5438    27.6166 </r>
       <r>   -10.7551    28.9126    29.1850 </r>
       <r>   -10.7008    37.2942    31.2081 </r>
       <r>   -10.6466    44.6324    33.6293 </r>
       <r>   -10.5923    41.4692    35.8789 </r>
       <r>   -10.5381    41.0590    38.1063 </r>
       <r>   -10.4838    63.8221    41.5685 </r>
       <r>   -10.4296    69.1118    45.3176 </r>
       <r>   -10.3753    50.6410    48.0648 </r>
       <r>   -10.3211    35.9303    50.0139 </r>
       <r>   -10.2668    27.2394    51.4916 </r>
       <r>   -10.2126    26.8249    52.9468 </r>
       <r>   -10.1583    36.3575    54.9191 </r>
       <r>   -10.1041    34.1883    56.7737 </r>
       <r>   -10.0498    22.8117    58.0112 </r>
       <r>    -9.9956    36.1557    59.9726 </r>
       <r>    -9.9413    38.5937    62.0662 </r>
       <r>    -9.8871    27.4696    63.5564 </r>
       <r>    -9.8328     7.7528    63.9769 </r>
       <r>    -9.7786     0.4220    63.9998 </r>
       <r>    -9.7243     0.0031    64.0000 </r>
       <r>    -9.6701     0.0000    64.0000 </r>
       <r>    -9.6159     0.0000    64.0000 </r>
       <r>    -9.5616     0.0000    64.0000 </r>
       <r>    -9.5074     0.0000    64.0000 </r>
       <r>    -9.4531     0.0000    64.0000 </r>
       <r>    -9.3989     0.0000    64.0000 </r>
       <r>    -9.3446     0.0000    64.0000 </r>
       <r>    -9.2904     0.0000    64.0000 </r>
       <r>    -9.2361     0.0000    64.0000 </r>
       <r>    -9.1819     0.0000    64.0000 </r>
       <r>    -9.1276     0.0000    64.0000 </r>
       <r>    -9.0734     0.0000    64.0000 </r>
       <r>    -9.0191     0.0000    64.0000 </r>
       <r>    -8.9649     0.0000    64.0000 </r>
       <r>    -8.9106     0.0000    64.0000 </r>
       <r>    -8.8564     0.0000    64.0000 </r>
       <r>    -8.8021     0.0000    64.0000 </r>
       <r>    -8.7479     0.0000    64.0000 </r>
       <r>    -8.6936     0.0000    64.0000 </r>
       <r>    -8.6394     0.0000    64.0000 </r>
       <r>    -8.5851     0.0000    64.0000 </r>
       <r>    -8.5309     0.0000    64.0000 </r>
       <r>    -8.4766     0.0000    64.0000 </r>
       <r>    -8.4224     0.0000    64.0000 </r>
       <r>    -8.3682     0.0000    64.0000 </r>
       <r>    -8.3139     0.0000    64.0000 </r>
       <r>    -8.2597     0.0000    64.0000 </r>
       <r>    -8.2054     0.0000    64.0000 </r>
       <r>    -8.1512     0.0000    64.0000 </r>
       <r>    -8.0969     0.0000    64.0000 </r>
       <r>    -8.0427     0.0000    64.0000 </r>
       <r>    -7.9884     0.0000    64.0000 </r>
       <r>    -7.9342     0.0000    64.0000 </r>
       <r>    -7.8799     0.0000    64.0000 </r>
       <r>    -7.8257     0.0000    64.0000 </r>
       <r>    -7.7714     0.0000    64.0000 </r>
       <r>    -7.7172     0.0000    64.0000 </r>
       <r>    -7.6629     0.0000    64.0000 </r>
       <r>    -7.6087     0.0000    64.0000 </r>
       <r>    -7.5544     0.0000    64.0000 </r>
       <r>    -7.5002     0.0000    64.0000 </r>
       <r>    -7.4459     0.0000    64.0000 </r>
       <r>    -7.3917     0.0000    64.0000 </r>
       <r>    -7.3374     0.0000    64.0000 </r>
       <r>    -7.2832     0.0000    64.0000 </r>
       <r>    -7.2290     0.0000    64.0000 </r>
       <r>    -7.1747     0.0000    64.0000 </r>
       <r>    -7.1205     0.0000    64.0000 </r>
       <r>    -7.0662     0.0000    64.0000 </r>
       <r>    -7.0120     0.0000    64.0000 </r>
       <r>    -6.9577     0.0000    64.0000 </r>
       <r>    -6.9035     0.0000    64.0000 </r>
       <r>    -6.8492     0.0000    64.0000 </r>
       <r>    -6.7950     0.0000    64.0000 </r>
       <r>    -6.7407     0.0000    64.0000 </r>
       <r>    -6.6865     0.0000    64.0000 </r>
       <r>    -6.6322     0.0000    64.0000 </r>
       <r>    -6.5780     0.0000    64.0000 </r>
       <r>    -6.5237     0.0000    64.0000 </r>
       <r>    -6.4695     0.0000    64.0000 </r>
       <r>    -6.4152     0.0000    64.0000 </r>
       <r>    -6.3610     0.0000    64.0000 </r>
       <r>    -6.3067     0.0000    64.0000 </r>
       <r>    -6.2525     0.0000    64.0000 </r>
       <r>    -6.1982     0.0000    64.0000 </r>
       <r>    -6.1440     0.0000    64.0000 </r>
       <r>    -6.0898     0.0000    64.0000 </r>
       <r>    -6.0355     0.0000    64.0000 </r>
       <r>    -5.9813     0.0000    64.0000 </r>
       <r>    -5.9270     0.0000    64.0000 </r>
       <r>    -5.8728     0.0000    64.0000 </r>
       <r>    -5.8185     0.0000    64.0000 </r>
       <r>    -5.7643     0.0000    64.0000 </r>
       <r>    -5.7100     0.0000    64.0000 </r>
       <r>    -5.6558     0.0000    64.0000 </r>
       <r>    -5.6015     0.0000    64.0000 </r>
       <r>    -5.5473     0.0000    64.0000 </r>
       <r>    -5.4930     0.0000    64.0000 </r>
       <r>    -5.4388     0.0036    64.0002 </r>
       <r>    -5.3845     0.3104    64.0170 </r>
       <r>    -5.3303     3.2448    64.1931 </r>
       <r>    -5.2760     4.8826    64.4579 </r>
       <r>    -5.2218     5.8372    64.7746 </r>
       <r>    -5.1675    17.7882    65.7395 </r>
       <r>    -5.1133    16.9030    66.6565 </r>
       <r>    -5.0590    17.0660    67.5823 </r>
       <r>    -5.0048    14.1025    68.3473 </r>
       <r>    -4.9505    15.0332    69.1628 </r>
       <r>    -4.8963    17.8269    70.1299 </r>
       <r>    -4.8421    10.4496    70.6968 </r>
       <r>    -4.7878    15.2771    71.5255 </r>
       <r>    -4.7336    24.9927    72.8813 </r>
       <r>    -4.6793    29.1745    74.4640 </r>
       <r>    -4.6251    24.3438    75.7846 </r>
       <r>    -4.5708    14.4756    76.5698 </r>
       <r>    -4.5166    21.1140    77.7152 </r>
       <r>    -4.4623    30.2644    79.3570 </r>
       <r>    -4.4081    29.6162    80.9636 </r>
       <r>    -4.3538    42.2282    83.2544 </r>
       <r>    -4.2996    57.6885    86.3838 </r>
       <r>    -4.2453    70.8797    90.2289 </r>
       <r>    -4.1911    78.4095    94.4824 </r>
       <r>    -4.1368    66.4120    98.0851 </r>
       <r>    -4.0826    53.9018   101.0092 </r>
       <r>    -4.0283    31.7534   102.7317 </r>
       <r>    -3.9741    35.9484   104.6818 </r>
       <r>    -3.9198    35.2281   106.5929 </r>
       <r>    -3.8656    41.4262   108.8402 </r>
       <r>    -3.8113    35.0164   110.7397 </r>
       <r>    -3.7571    23.7687   112.0291 </r>
       <r>    -3.7029    23.6936   113.3144 </r>
       <r>    -3.6486    29.1328   114.8948 </r>
       <r>    -3.5944    31.1419   116.5842 </r>
       <r>    -3.5401    21.6691   117.7597 </r>
       <r>    -3.4859    32.8206   119.5401 </r>
       <r>    -3.4316    38.4751   121.6273 </r>
       <r>    -3.3774    46.2612   124.1369 </r>
       <r>    -3.3231    58.0124   127.2839 </r>
       <r>    -3.2689    45.5481   129.7548 </r>
       <r>    -3.2146    31.5346   131.4655 </r>
       <r>    -3.1604    30.8906   133.1412 </r>
       <r>    -3.1061    25.1176   134.5038 </r>
       <r>    -3.0519    30.2683   136.1458 </r>
       <r>    -2.9976    41.5388   138.3992 </r>
       <r>    -2.9434    50.0110   141.1122 </r>
       <r>    -2.8891    50.2549   143.8384 </r>
       <r>    -2.8349    30.6689   145.5021 </r>
       <r>    -2.7806    27.7687   147.0085 </r>
       <r>    -2.7264    48.6351   149.6468 </r>
       <r>    -2.6721    56.4323   152.7081 </r>
       <r>    -2.6179    57.7957   155.8434 </r>
       <r>    -2.5637    61.4570   159.1773 </r>
       <r>    -2.5094    53.2708   162.0671 </r>
       <r>    -2.4552    66.5308   165.6763 </r>
       <r>    -2.4009    51.4538   168.4675 </r>
       <r>    -2.3467    35.0759   170.3703 </r>
       <r>    -2.2924    43.7375   172.7430 </r>
       <r>    -2.2382    42.3965   175.0429 </r>
       <r>    -2.1839    46.5188   177.5664 </r>
       <r>    -2.1297    41.9621   179.8428 </r>
       <r>    -2.0754    36.6815   181.8326 </r>
       <r>    -2.0212    32.9126   183.6181 </r>
       <r>    -1.9669    42.2554   185.9103 </r>
       <r>    -1.9127    51.4839   188.7032 </r>
       <r>    -1.8584    44.4981   191.1171 </r>
       <r>    -1.8042    42.1662   193.4046 </r>
       <r>    -1.7499    39.5298   195.5490 </r>
       <r>    -1.6957    55.5733   198.5637 </r>
       <r>    -1.6414    55.0152   201.5481 </r>
       <r>    -1.5872    48.8382   204.1975 </r>
       <r>    -1.5329    51.0124   206.9648 </r>
       <r>    -1.4787    42.9797   209.2963 </r>
       <r>    -1.4244    41.5764   211.5518 </r>
       <r>    -1.3702    72.1568   215.4661 </r>
       <r>    -1.3160    99.0131   220.8373 </r>
       <r>    -1.2617    82.7250   225.3250 </r>
       <r>    -1.2075    37.6634   227.3681 </r>
       <r>    -1.1532    37.5104   229.4030 </r>
       <r>    -1.0990    55.1161   232.3929 </r>
       <r>    -1.0447    51.4495   235.1839 </r>
       <r>    -0.9905    40.3579   237.3732 </r>
       <r>    -0.9362    50.2210   240.0976 </r>
       <r>    -0.8820    74.9064   244.1611 </r>
       <r>    -0.8277    81.3579   248.5746 </r>
       <r>    -0.7735    63.6067   252.0251 </r>
       <r>    -0.7192    58.2964   255.1876 </r>
       <r>    -0.6650    54.7674   258.1586 </r>
       <r>    -0.6107    42.6128   260.4702 </r>
       <r>    -0.5565    43.4363   262.8265 </r>
       <r>    -0.5022    51.9796   265.6463 </r>
       <r>    -0.4480    44.3725   268.0534 </r>
       <r>    -0.3937    42.5696   270.3627 </r>
       <r>    -0.3395    36.3472   272.3345 </r>
       <r>    -0.2852    30.7191   274.0009 </r>
       <r>    -0.2310    31.8346   275.7279 </r>
       <r>    -0.1768    45.0377   278.1710 </r>
       <r>    -0.1225    31.9517   279.9043 </r>
       <r>    -0.0683    27.9487   281.4205 </r>
       <r>    -0.0140    28.5218   282.9677 </r>
       <r>     0.0402    29.0294   284.5425 </r>
       <r>     0.0945    21.5450   285.7113 </r>
       <r>     0.1487     8.4681   286.1707 </r>
       <r>     0.2030     5.0396   286.4440 </r>
       <r>     0.2572     1.0125   286.4990 </r>
       <r>     0.3115     0.6379   286.5336 </r>
       <r>     0.3657     6.4414   286.8830 </r>
       <r>     0.4200    13.7467   287.6287 </r>
       <r>     0.4742    11.7169   288.2643 </r>
       <r>     0.5285     9.1085   288.7585 </r>
       <r>     0.5827     8.8080   289.2363 </r>
       <r>     0.6370    21.5805   290.4070 </r>
       <r>     0.6912    24.2469   291.7223 </r>
       <r>     0.7455    23.0224   292.9712 </r>
       <r>     0.7997    37.4925   295.0051 </r>
       <r>     0.8540    27.0049   296.4701 </r>
       <r>     0.9082    16.0395   297.3402 </r>
       <r>     0.9624    16.9743   298.2610 </r>
       <r>     1.0167    17.5242   299.2116 </r>
       <r>     1.0709    16.5717   300.1106 </r>
       <r>     1.1252    14.8835   300.9180 </r>
       <r>     1.1794    13.3069   301.6399 </r>
       <r>     1.2337    19.4766   302.6964 </r>
       <r>     1.2879    36.0597   304.6526 </r>
       <r>     1.3422    21.2818   305.8071 </r>
       <r>     1.3964    23.1053   307.0605 </r>
       <r>     1.4507    52.3066   309.8980 </r>
       <r>     1.5049    62.6421   313.2962 </r>
       <r>     1.5592    61.8131   316.6494 </r>
       <r>     1.6134    41.5741   318.9047 </r>
       <r>     1.6677    11.8275   319.5463 </r>
       <r>     1.7219     7.3216   319.9435 </r>
       <r>     1.7762    20.0143   321.0292 </r>
       <r>     1.8304    51.5193   323.8240 </r>
       <r>     1.8847    67.6508   327.4939 </r>
       <r>     1.9389    52.6489   330.3500 </r>
       <r>     1.9932    50.2635   333.0767 </r>
       <r>     2.0474    57.6144   336.2021 </r>
       <r>     2.1016    45.1455   338.6512 </r>
       <r>     2.1559    60.7446   341.9464 </r>
       <r>     2.2101    63.9884   345.4176 </r>
       <r>     2.2644    49.9037   348.1248 </r>
       <r>     2.3186    34.5319   349.9981 </r>
       <r>     2.3729    21.7435   351.1776 </r>
       <r>     2.4271    12.7592   351.8698 </r>
       <r>     2.4814     2.3320   351.9963 </r>
       <r>     2.5356     0.0684   352.0000 </r>
       <r>     2.5899     0.0003   352.0000 </r>
       <r>     2.6441     0.0000   352.0000 </r>
       <r>     2.6984     0.0000   352.0000 </r>
       <r>     2.7526     0.0000   352.0000 </r>
       <r>     2.8069     0.0000   352.0000 </r>
       <r>     2.8611     0.0000   352.0000 </r>
       <r>     2.9154     0.0000   352.0000 </r>
       <r>     2.9696     0.0000   352.0000 </r>
       <r>     3.0239     0.0000   352.0000 </r>
       <r>     3.0781     0.0000   352.0000 </r>
       <r>     3.1324     0.0000   352.0000 </r>
      </set>
     </set>
    </array>
   </total>
  </dos>
 </calculation>
 <structure name="finalpos" >
  <crystal>
   <varray name="basis" >
    <v>      13.80799961       0.00000000       0.00000000 </v>
    <v>       0.00000000      12.73600006       0.00000000 </v>
    <v>       0.00000000       0.00000000      16.00000000 </v>
   </varray>
   <i name="volume">   2813.73894219 </i>
   <varray name="rec_basis" >
    <v>       0.07242179       0.00000000       0.00000000 </v>
    <v>       0.00000000       0.07851759       0.00000000 </v>
    <v>       0.00000000       0.00000000       0.06250000 </v>
   </varray>
  </crystal>
  <varray name="positions" >
   <v>       0.12499998       0.05081783       0.62912054 </v>
   <v>       0.62500003       0.05081782       0.62912048 </v>
   <v>       0.37499996       0.05081782       0.62912054 </v>
   <v>       0.87500004       0.05081779       0.62912056 </v>
   <v>       0.12499996       0.55081778       0.62912060 </v>
   <v>       0.62499997       0.55081771       0.62912054 </v>
   <v>       0.37500005       0.55081781       0.62912049 </v>
   <v>       0.87500003       0.55081781       0.62912053 </v>
   <v>       0.12499996       0.37459999       0.40761893 </v>
   <v>       0.62499996       0.37460000       0.40761898 </v>
   <v>       0.37500001       0.37460001       0.40761896 </v>
   <v>       0.87500007       0.37460004       0.40761895 </v>
   <v>       0.12499996       0.87459999       0.40761891 </v>
   <v>       0.62500001       0.87460008       0.40761896 </v>
   <v>       0.37500004       0.87460000       0.40761895 </v>
   <v>       0.87500001       0.87459999       0.40761896 </v>
   <v>       0.00000004       0.12870234       0.37088047 </v>
   <v>       0.50000001       0.12870237       0.37088051 </v>
   <v>       0.24999998       0.12870233       0.37088051 </v>
   <v>       0.74999997       0.12870232       0.37088053 </v>
   <v>       0.00000000       0.62870234       0.37088046 </v>
   <v>       0.49999992       0.62870229       0.37088050 </v>
   <v>       0.24999997       0.62870238       0.37088045 </v>
   <v>       0.75000010       0.62870233       0.37088048 </v>
   <v>       0.00000005       0.30491863       0.59238169 </v>
   <v>       0.49999999       0.30491861       0.59238162 </v>
   <v>       0.24999996       0.30491856       0.59238168 </v>
   <v>       0.75000000       0.30491857       0.59238166 </v>
   <v>       0.99999997       0.80491860       0.59238170 </v>
   <v>       0.49999998       0.80491861       0.59238166 </v>
   <v>       0.25000001       0.80491857       0.59238166 </v>
   <v>       0.75000004       0.80491859       0.59238163 </v>
   <v>       0.12500001       0.18028716       0.49407263 </v>
   <v>       0.62500002       0.18028725       0.49407263 </v>
   <v>       0.37499997       0.18028722       0.49407261 </v>
   <v>       0.87500000       0.18028716       0.49407263 </v>
   <v>       0.12500002       0.68028717       0.49407263 </v>
   <v>       0.62499998       0.68028714       0.49407264 </v>
   <v>       0.37499989       0.68028717       0.49407265 </v>
   <v>       0.87500010       0.68028718       0.49407264 </v>
   <v>       0.00000006       0.99923253       0.50592563 </v>
   <v>       0.49999996       0.99923248       0.50592564 </v>
   <v>       0.24999992       0.99923257       0.50592562 </v>
   <v>       0.75000004       0.99923250       0.50592561 </v>
   <v>       0.99999996       0.49923257       0.50592564 </v>
   <v>       0.50000004       0.49923248       0.50592567 </v>
   <v>       0.25000001       0.49923258       0.50592565 </v>
   <v>       0.74999999       0.49923254       0.50592565 </v>
  </varray>
 </structure>
</modeling>
