<?xml version="1.0" encoding="ISO-8859-1"?>
<modeling>
 <generator>
  <i name="program" type="string">vasp </i>
  <i name="version" type="string">5.3.5  </i>
  <i name="subversion" type="string">31Mar14 (build Mar 18 2017 11:34:20) complex                          parallel </i>
  <i name="platform" type="string">LinuxIFC </i>
  <i name="date" type="string">2018 02 12 </i>
  <i name="time" type="string">12:14:04 </i>
 </generator>
 <incar>
  <i type="string" name="SYSTEM"> MoTe2 Phonon calculation</i>
  <i type="string" name="PREC">accurate</i>
  <i type="string" name="ALGO"> Normal</i>
  <i type="logical" name="ADDGRID"> T  </i>
  <i type="int" name="NELMDL">    -5</i>
  <i type="int" name="IBRION">     8</i>
  <i name="EDIFF">      0.00000100</i>
  <i type="int" name="NSW">     1</i>
  <i type="int" name="ISIF">     2</i>
  <i type="int" name="ISYM">     0</i>
  <i name="ENCUT">    400.00000000</i>
  <i name="POTIM">      0.50000000</i>
  <i type="logical" name="LREAL"> F  </i>
  <i type="int" name="ISMEAR">     0</i>
  <i name="SIGMA">      0.05000000</i>
  <i type="int" name="NWRITE">     3</i>
  <i type="logical" name="LWAVE"> F  </i>
  <i type="logical" name="LCHARG"> F  </i>
 </incar>
 <kpoints>
  <generation param="Monkhorst-Pack">
   <v type="int" name="divisions">       4        4        1 </v>
   <v name="usershift">      0.00000000       0.00000000       0.00000000 </v>
   <v name="genvec1">      0.25000000       0.00000000       0.00000000 </v>
   <v name="genvec2">      0.00000000       0.25000000       0.00000000 </v>
   <v name="genvec3">      0.00000000       0.00000000       1.00000000 </v>
   <v name="shift">      0.50000000       0.50000000       0.00000000 </v>
  </generation>
  <varray name="kpointlist" >
   <v>       0.12500000       0.12500000       0.00000000 </v>
   <v>       0.37500000       0.12500000       0.00000000 </v>
   <v>      -0.37500000       0.12500000       0.00000000 </v>
   <v>      -0.12500000       0.12500000       0.00000000 </v>
   <v>       0.12500000       0.37500000       0.00000000 </v>
   <v>       0.37500000       0.37500000       0.00000000 </v>
   <v>      -0.37500000       0.37500000       0.00000000 </v>
   <v>      -0.12500000       0.37500000       0.00000000 </v>
  </varray>
  <varray name="weights" >
   <v>       0.12500000 </v>
   <v>       0.12500000 </v>
   <v>       0.12500000 </v>
   <v>       0.12500000 </v>
   <v>       0.12500000 </v>
   <v>       0.12500000 </v>
   <v>       0.12500000 </v>
   <v>       0.12500000 </v>
  </varray>
 </kpoints>
 <parameters>
  <separator name="general" >
   <i type="string" name="SYSTEM">MoTe2 Phonon calculation</i>
   <i type="logical" name="LCOMPAT"> F  </i>
  </separator>
  <separator name="electronic" >
   <i type="string" name="PREC">accura</i>
   <i name="ENMAX">    400.00000000</i>
   <i name="ENAUG">    368.79200000</i>
   <i name="EDIFF">      0.00000100</i>
   <i type="int" name="IALGO">    38</i>
   <i type="int" name="IWAVPR">    11</i>
   <i type="int" name="NBANDS">   176</i>
   <i name="NELECT">    282.00000000</i>
   <i type="int" name="TURBO">     0</i>
   <i type="int" name="IRESTART">     0</i>
   <i type="int" name="NREBOOT">     0</i>
   <i type="int" name="NMIN">     0</i>
   <i name="EREF">      0.00000000</i>
   <separator name="electronic smearing" >
    <i type="int" name="ISMEAR">     0</i>
    <i name="SIGMA">      0.05000000</i>
    <i name="KSPACING">      0.50000000</i>
    <i type="logical" name="KGAMMA"> T  </i>
   </separator>
   <separator name="electronic projectors" >
    <i type="logical" name="LREAL"> F  </i>
    <v name="ROPT">      0.00000000      0.00000000</v>
    <i type="int" name="LMAXPAW">  -100</i>
    <i type="int" name="LMAXMIX">     2</i>
    <i type="logical" name="NLSPLINE"> F  </i>
   </separator>
   <separator name="electronic startup" >
    <i type="int" name="ISTART">     0</i>
    <i type="int" name="ICHARG">     2</i>
    <i type="int" name="INIWAV">     1</i>
   </separator>
   <separator name="electronic spin" >
    <i type="int" name="ISPIN">     1</i>
    <i type="logical" name="LNONCOLLINEAR"> F  </i>
    <v name="MAGMOM">      1.00000000      1.00000000      1.00000000      1.00000000      1.00000000      1.00000000      1.00000000      1.00000000      1.00000000      1.00000000      1.00000000      1.00000000      1.00000000      1.00000000      1.00000000      1.00000000      1.00000000      1.00000000      1.00000000      1.00000000
      1.00000000      1.00000000      1.00000000      1.00000000      1.00000000      1.00000000      1.00000000      1.00000000      1.00000000      1.00000000      1.00000000      1.00000000      1.00000000      1.00000000      1.00000000      1.00000000      1.00000000      1.00000000      1.00000000      1.00000000
      1.00000000      1.00000000      1.00000000      1.00000000      1.00000000      1.00000000      1.00000000</v>
    <i name="NUPDOWN">     -1.00000000</i>
    <i type="logical" name="LSORBIT"> F  </i>
    <v name="SAXIS">      0.00000000      0.00000000      1.00000000</v>
    <i type="logical" name="LSPIRAL"> F  </i>
    <v name="QSPIRAL">      0.00000000      0.00000000      0.00000000</v>
    <i type="logical" name="LZEROZ"> F  </i>
   </separator>
   <separator name="electronic exchange-correlation" >
    <i type="logical" name="LASPH"> F  </i>
    <i type="logical" name="LMETAGGA"> F  </i>
   </separator>
   <separator name="electronic convergence" >
    <i type="int" name="NELM">    60</i>
    <i type="int" name="NELMDL">    -5</i>
    <i type="int" name="NELMIN">     2</i>
    <i name="ENINI">    400.00000000</i>
    <separator name="electronic convergence detail" >
     <i type="logical" name="LDIAG"> T  </i>
     <i type="logical" name="LSUBROT"> F  </i>
     <i name="WEIMIN">      0.00100000</i>
     <i name="EBREAK">      0.00000000</i>
     <i name="DEPER">      0.30000000</i>
     <i type="int" name="NRMM">     4</i>
     <i name="TIME">      0.40000000</i>
    </separator>
   </separator>
   <separator name="electronic mixer" >
    <i name="AMIX">      0.40000000</i>
    <i name="BMIX">      1.00000000</i>
    <i name="AMIN">      0.10000000</i>
    <i name="AMIX_MAG">      1.60000000</i>
    <i name="BMIX_MAG">      1.00000000</i>
    <separator name="electronic mixer details" >
     <i type="int" name="IMIX">     4</i>
     <i type="int" name="MAXMIX">   -45</i>
     <i name="WC">    100.00000000</i>
     <i type="int" name="INIMIX">     1</i>
     <i type="int" name="MIXPRE">     1</i>
     <i type="int" name="MREMOVE">     5</i>
    </separator>
   </separator>
   <separator name="electronic dipolcorrection" >
    <i type="logical" name="LDIPOL"> F  </i>
    <i type="logical" name="LMONO"> F  </i>
    <i type="int" name="IDIPOL">     0</i>
    <i name="EPSILON">      1.00000000</i>
    <v name="DIPOL">   -100.00000000   -100.00000000   -100.00000000</v>
    <i name="EFIELD">      0.00000000</i>
   </separator>
  </separator>
  <separator name="grids" >
   <i type="int" name="NGX">    90</i>
   <i type="int" name="NGY">    84</i>
   <i type="int" name="NGZ">   108</i>
   <i type="int" name="NGXF">   180</i>
   <i type="int" name="NGYF">   168</i>
   <i type="int" name="NGZF">   216</i>
   <i type="logical" name="ADDGRID"> T  </i>
  </separator>
  <separator name="ionic" >
   <i type="int" name="NSW">     1</i>
   <i type="int" name="IBRION">     8</i>
   <i type="int" name="ISIF">     2</i>
   <i name="PSTRESS">      0.00000000</i>
   <i name="EDIFFG">      0.00001000</i>
   <i type="int" name="NFREE">     0</i>
   <i name="POTIM">      0.50000000</i>
   <i name="SMASS">     -3.00000000</i>
   <i name="SCALEE">      1.00000000</i>
  </separator>
  <separator name="ionic md" >
   <i name="TEBEG">      0.00010000</i>
   <i name="TEEND">      0.00010000</i>
   <i type="int" name="NBLOCK">     1</i>
   <i type="int" name="KBLOCK">     1</i>
   <i type="int" name="NPACO">   256</i>
   <i name="APACO">     16.00000000</i>
  </separator>
  <separator name="symmetry" >
   <i type="int" name="ISYM">     0</i>
   <i name="SYMPREC">      0.00001000</i>
  </separator>
  <separator name="dos" >
   <i type="logical" name="LORBIT"> F  </i>
   <v name="RWIGS">     -1.00000000     -1.00000000</v>
   <i type="int" name="NEDOS">   301</i>
   <i name="EMIN">     10.00000000</i>
   <i name="EMAX">    -10.00000000</i>
   <i name="EFERMI">      0.00000000</i>
  </separator>
  <separator name="writing" >
   <i type="int" name="NWRITE">     3</i>
   <i type="logical" name="LWAVE"> F  </i>
   <i type="logical" name="LCHARG"> F  </i>
   <i type="logical" name="LPARD"> F  </i>
   <i type="logical" name="LVTOT"> F  </i>
   <i type="logical" name="LVHAR"> F  </i>
   <i type="logical" name="LELF"> F  </i>
   <i type="logical" name="LOPTICS"> F  </i>
   <v name="STM">      0.00000000      0.00000000      0.00000000      0.00000000      0.00000000      0.00000000      0.00000000</v>
  </separator>
  <separator name="performance" >
   <i type="int" name="NPAR">    16</i>
   <i type="int" name="NSIM">     4</i>
   <i type="int" name="NBLK">    -1</i>
   <i type="logical" name="LPLANE"> T  </i>
   <i type="logical" name="LSCALAPACK"> T  </i>
   <i type="logical" name="LSCAAWARE"> F  </i>
   <i type="logical" name="LSCALU"> F  </i>
   <i type="logical" name="LASYNC"> F  </i>
   <i type="logical" name="LORBITALREAL"> F  </i>
  </separator>
  <separator name="miscellaneous" >
   <i type="int" name="IDIOT">     3</i>
   <i type="logical" name="LMUSIC"> F  </i>
   <v name="POMASS">    127.60000000     95.94000000</v>
   <v name="DARWINR">      0.00000000      0.00000000</v>
   <v name="DARWINV">      1.00000000      1.00000000</v>
   <i type="logical" name="LCORR"> T  </i>
  </separator>
  <i type="logical" name="GGA_COMPAT"> T  </i>
  <i type="logical" name="LBERRY"> F  </i>
  <i type="int" name="ICORELEVEL">     0</i>
  <i type="logical" name="LDAU"> F  </i>
  <i type="int" name="I_CONSTRAINED_M">     0</i>
  <separator name="electronic exchange-correlation" >
   <i type="string" name="GGA">--</i>
   <i type="int" name="VOSKOWN">     0</i>
   <i type="logical" name="LHFCALC"> F  </i>
   <i type="string" name="PRECFOCK"></i>
   <i type="logical" name="LSYMGRAD"> F  </i>
   <i type="logical" name="LHFONE"> F  </i>
   <i type="logical" name="LRHFCALC"> F  </i>
   <i type="logical" name="LTHOMAS"> F  </i>
   <i type="logical" name="LMODELHF"> F  </i>
   <i name="ENCUT4O">     -1.00000000</i>
   <i type="int" name="EXXOEP">     0</i>
   <i type="int" name="FOURORBIT">     0</i>
   <i name="AEXX">      0.00000000</i>
   <i name="HFALPHA">      0.00000000</i>
   <i name="MCALPHA">      0.00000000</i>
   <i name="ALDAX">      1.00000000</i>
   <i name="AGGAX">      1.00000000</i>
   <i name="ALDAC">      1.00000000</i>
   <i name="AGGAC">      1.00000000</i>
   <i type="int" name="NKREDX">     1</i>
   <i type="int" name="NKREDY">     1</i>
   <i type="int" name="NKREDZ">     1</i>
   <i type="logical" name="SHIFTRED"> F  </i>
   <i type="logical" name="ODDONLY"> F  </i>
   <i type="logical" name="EVENONLY"> F  </i>
   <i type="int" name="LMAXFOCK">     0</i>
   <i type="int" name="NMAXFOCKAE">     0</i>
   <i type="logical" name="LFOCKAEDFT"> F  </i>
   <i name="HFSCREEN">      0.00000000</i>
   <i name="HFSCREENC">      0.00000000</i>
   <i type="int" name="NBANDSGWLOW">     0</i>
  </separator>
  <separator name="vdW DFT" >
   <i type="logical" name="LUSE_VDW"> F  </i>
   <i name="Zab_VDW">     -0.84910000</i>
   <i name="PARAM1">      0.12340000</i>
   <i name="PARAM2">      1.00000000</i>
   <i name="PARAM3">      0.00000000</i>
  </separator>
  <separator name="model GW" >
   <i type="int" name="MODEL_GW">     0</i>
   <i name="MODEL_EPS0">     35.92007160</i>
   <i name="MODEL_ALPHA">      1.00000000</i>
  </separator>
  <separator name="linear response parameters" >
   <i type="logical" name="LEPSILON"> F  </i>
   <i type="logical" name="LRPA"> F  </i>
   <i type="logical" name="LNABLA"> F  </i>
   <i type="logical" name="LVEL"> F  </i>
   <i type="int" name="KINTER">     0</i>
   <i name="CSHIFT">      0.10000000</i>
   <i name="OMEGAMAX">     -1.00000000</i>
   <i name="DEG_THRESHOLD">      0.00200000</i>
  </separator>
  <separator name="orbital magnetization" >
   <i type="logical" name="NUCIND"> F  </i>
   <v name="MAGPOS">      0.00000000      0.00000000      0.00000000</v>
   <i type="logical" name="LNICSALL"> T  </i>
   <i type="logical" name="ORBITALMAG"> F  </i>
   <i type="logical" name="LMAGBLOCH"> F  </i>
   <i type="logical" name="LCHIMAG"> F  </i>
   <i type="logical" name="LGAUGE"> T  </i>
   <i type="int" name="MAGATOM">     0</i>
   <v name="MAGDIPOL">      0.00000000      0.00000000      0.00000000</v>
   <v name="AVECCONST">      0.00000000      0.00000000      0.00000000</v>
  </separator>
  <separator name="response functions" >
   <i type="logical" name="LADDER"> F  </i>
   <i type="logical" name="LFXC"> F  </i>
   <i type="logical" name="LHARTREE"> T  </i>
   <i type="int" name="IBSE">     0</i>
   <i type="logical" name="LTCTE"> F  </i>
   <i type="logical" name="LTETE"> F  </i>
   <i type="logical" name="LTRIPLET"> F  </i>
   <i type="logical" name="LFXCEPS"> F  </i>
   <i type="logical" name="LFXHEG"> F  </i>
   <i type="logical" name="L2ORDER"> F  </i>
   <i type="logical" name="LUSEW"> F  </i>
   <i name="ENCUTGW">     -2.00000000</i>
   <i name="ENCUTGWSOFT">     -2.00000000</i>
   <i name="ENCUTLF">     -1.00000000</i>
   <i type="int" name="LMAXMP2">    -1</i>
   <i name="SCISSOR">      0.00000000</i>
   <i type="int" name="NOMEGA">     0</i>
   <i type="int" name="NOMEGAR">     0</i>
   <i type="int" name="NBANDSGW">    -1</i>
   <i type="int" name="NBANDSO">    -1</i>
   <i type="int" name="NBANDSV">    -1</i>
   <i type="int" name="NELM">     1</i>
   <i type="int" name="DIM">     3</i>
   <i type="int" name="ANTIRES">     0</i>
   <i name="OMEGAMAX">    -30.00000000</i>
   <i name="OMEGAMIN">    -30.00000000</i>
   <i name="OMEGATL">   -200.00000000</i>
   <i type="int" name="OMEGAGRID">     0</i>
   <i name="CSHIFT">     -0.10000000</i>
   <i type="logical" name="SELFENERGY"> F  </i>
   <i type="logical" name="LSPECTRAL"> F  </i>
   <i type="logical" name="ODDONLYGW"> F  </i>
   <i type="logical" name="EVENONLYGW"> F  </i>
   <i type="int" name="NKREDLFX">     1</i>
   <i type="int" name="NKREDLFY">     1</i>
   <i type="int" name="NKREDLFZ">     1</i>
   <i type="int" name="MAXMEM">  1800</i>
   <i type="int" name="TELESCOPE">     0</i>
   <i type="int" name="TAUPAR">     1</i>
  </separator>
  <separator name="External order field" >
   <i name="OFIELD_KAPPA">      0.00000000</i>
   <v name="OFIELD_K">      0.00000000      0.00000000      0.00000000</v>
   <i name="OFIELD_Q6_NEAR">      0.00000000</i>
   <i name="OFIELD_Q6_FAR">      0.00000000</i>
   <i name="OFIELD_A">      0.00000000</i>
  </separator>
 </parameters>
 <atominfo>
  <atoms>      47 </atoms>
  <types>       2 </types>
  <array name="atoms" >
   <dimension dim="1">ion</dimension>
   <field type="string">element</field>
   <field type="int">atomtype</field>
   <set>
    <rc><c>Te</c><c>   1</c></rc>
    <rc><c>Te</c><c>   1</c></rc>
    <rc><c>Te</c><c>   1</c></rc>
    <rc><c>Te</c><c>   1</c></rc>
    <rc><c>Te</c><c>   1</c></rc>
    <rc><c>Te</c><c>   1</c></rc>
    <rc><c>Te</c><c>   1</c></rc>
    <rc><c>Te</c><c>   1</c></rc>
    <rc><c>Te</c><c>   1</c></rc>
    <rc><c>Te</c><c>   1</c></rc>
    <rc><c>Te</c><c>   1</c></rc>
    <rc><c>Te</c><c>   1</c></rc>
    <rc><c>Te</c><c>   1</c></rc>
    <rc><c>Te</c><c>   1</c></rc>
    <rc><c>Te</c><c>   1</c></rc>
    <rc><c>Te</c><c>   1</c></rc>
    <rc><c>Te</c><c>   1</c></rc>
    <rc><c>Te</c><c>   1</c></rc>
    <rc><c>Te</c><c>   1</c></rc>
    <rc><c>Te</c><c>   1</c></rc>
    <rc><c>Te</c><c>   1</c></rc>
    <rc><c>Te</c><c>   1</c></rc>
    <rc><c>Te</c><c>   1</c></rc>
    <rc><c>Te</c><c>   1</c></rc>
    <rc><c>Te</c><c>   1</c></rc>
    <rc><c>Te</c><c>   1</c></rc>
    <rc><c>Te</c><c>   1</c></rc>
    <rc><c>Te</c><c>   1</c></rc>
    <rc><c>Te</c><c>   1</c></rc>
    <rc><c>Te</c><c>   1</c></rc>
    <rc><c>Te</c><c>   1</c></rc>
    <rc><c>Mo</c><c>   2</c></rc>
    <rc><c>Mo</c><c>   2</c></rc>
    <rc><c>Mo</c><c>   2</c></rc>
    <rc><c>Mo</c><c>   2</c></rc>
    <rc><c>Mo</c><c>   2</c></rc>
    <rc><c>Mo</c><c>   2</c></rc>
    <rc><c>Mo</c><c>   2</c></rc>
    <rc><c>Mo</c><c>   2</c></rc>
    <rc><c>Mo</c><c>   2</c></rc>
    <rc><c>Mo</c><c>   2</c></rc>
    <rc><c>Mo</c><c>   2</c></rc>
    <rc><c>Mo</c><c>   2</c></rc>
    <rc><c>Mo</c><c>   2</c></rc>
    <rc><c>Mo</c><c>   2</c></rc>
    <rc><c>Mo</c><c>   2</c></rc>
    <rc><c>Mo</c><c>   2</c></rc>
   </set>
  </array>
  <array name="atomtypes" >
   <dimension dim="1">type</dimension>
   <field type="int">atomspertype</field>
   <field type="string">element</field>
   <field>mass</field>
   <field>valence</field>
   <field type="string">pseudopotential</field>
   <set>
    <rc><c>  31</c><c>Te</c><c>    127.60000000</c><c>      6.00000000</c><c>  PAW_PBE Te 08Apr2002                  </c></rc>
    <rc><c>  16</c><c>Mo</c><c>     95.94000000</c><c>      6.00000000</c><c>  PAW_PBE Mo 08Apr2002                  </c></rc>
   </set>
  </array>
 </atominfo>
 <structure name="initialpos" >
  <crystal>
   <varray name="basis" >
    <v>      13.80799961       0.00000000       0.00000000 </v>
    <v>       0.00000000      12.73600006       0.00000000 </v>
    <v>       0.00000000       0.00000000      16.00000000 </v>
   </varray>
   <i name="volume">   2813.73894219 </i>
   <varray name="rec_basis" >
    <v>       0.07242179       0.00000000       0.00000000 </v>
    <v>       0.00000000       0.07851759       0.00000000 </v>
    <v>       0.00000000       0.00000000       0.06250000 </v>
   </varray>
  </crystal>
  <varray name="positions" >
   <v>       0.62499998       0.05253229       0.63219482 </v>
   <v>       0.35902693       0.04988312       0.62533017 </v>
   <v>       0.89097303       0.04988313       0.62533016 </v>
   <v>       0.12500000       0.55102005       0.62959639 </v>
   <v>       0.62499999       0.55023056       0.63207387 </v>
   <v>       0.37203353       0.55048705       0.63028247 </v>
   <v>       0.87796647       0.55048702       0.63028249 </v>
   <v>       0.12500001       0.37468891       0.40554459 </v>
   <v>       0.62500000       0.37615435       0.41035569 </v>
   <v>       0.37590470       0.37519945       0.40887846 </v>
   <v>       0.87409530       0.37519945       0.40887846 </v>
   <v>       0.12500002       0.86896629       0.39912073 </v>
   <v>       0.62500000       0.87617969       0.41091999 </v>
   <v>       0.37496618       0.87646923       0.40979215 </v>
   <v>       0.87503382       0.87646923       0.40979216 </v>
   <v>       0.99781858       0.12959665       0.36446876 </v>
   <v>       0.50139039       0.12649428       0.37229914 </v>
   <v>       0.25218144       0.12959659       0.36446874 </v>
   <v>       0.74860961       0.12649429       0.37229916 </v>
   <v>       0.99883410       0.62650424       0.37071592 </v>
   <v>       0.49980095       0.63126807       0.37488980 </v>
   <v>       0.25116591       0.62650423       0.37071593 </v>
   <v>       0.75019906       0.63126805       0.37488980 </v>
   <v>       0.00532400       0.30014658       0.59165374 </v>
   <v>       0.49717928       0.30392116       0.59322149 </v>
   <v>       0.24467601       0.30014659       0.59165374 </v>
   <v>       0.75282070       0.30392116       0.59322150 </v>
   <v>       0.00782187       0.80983892       0.59036708 </v>
   <v>       0.49737638       0.80635992       0.59529354 </v>
   <v>       0.24217811       0.80983896       0.59036706 </v>
   <v>       0.75262361       0.80635992       0.59529355 </v>
   <v>       0.12500003       0.17009351       0.48819960 </v>
   <v>       0.62500000       0.18161874       0.49629288 </v>
   <v>       0.37330376       0.17960010       0.49205145 </v>
   <v>       0.87669623       0.17960009       0.49205145 </v>
   <v>       0.12500001       0.67705487       0.49172526 </v>
   <v>       0.62500000       0.68223076       0.49811356 </v>
   <v>       0.37174260       0.68214493       0.49649107 </v>
   <v>       0.87825740       0.68214493       0.49649107 </v>
   <v>       0.01291220       0.00199580       0.49879126 </v>
   <v>       0.49930511       0.00112825       0.50906440 </v>
   <v>       0.23708783       0.00199580       0.49879122 </v>
   <v>       0.75069486       0.00112827       0.50906440 </v>
   <v>       0.00296118       0.49691377       0.50598297 </v>
   <v>       0.49906132       0.50048899       0.50879053 </v>
   <v>       0.24703883       0.49691379       0.50598296 </v>
   <v>       0.75093867       0.50048898       0.50879054 </v>
  </varray>
 </structure>
 <calculation>
  <scstep>
   <time name="dav">    5.87    5.87</time>
   <time name="total">    6.24    6.29</time>
   <energy>
    <i name="alphaZ">    196.90117899 </i>
    <i name="ewald">  13181.90509462 </i>
    <i name="hartreedc"> -23184.55009162 </i>
    <i name="XCdc">  -1843.84822745 </i>
    <i name="pawpsdc">  10689.39840907 </i>
    <i name="pawaedc">  -8357.71722261 </i>
    <i name="eentropy">     -0.02594946 </i>
    <i name="bandstr">    551.23631892 </i>
    <i name="atom">  10401.64288489 </i>
    <i name="e_fr_energy">   1634.94239534 </i>
    <i name="e_wo_entrp">   1634.96834480 </i>
    <i name="e_0_energy">   1634.95537007 </i>
   </energy>
  </scstep>
  <scstep>
   <time name="dav">    7.57    7.57</time>
   <time name="total">    7.66    7.66</time>
   <energy>
    <i name="e_fr_energy">    -78.74188869 </i>
    <i name="e_wo_entrp">    -78.73200422 </i>
    <i name="e_0_energy">    -78.73694645 </i>
   </energy>
  </scstep>
  <scstep>
   <time name="dav">    6.38    6.38</time>
   <time name="total">    6.46    6.46</time>
   <energy>
    <i name="e_fr_energy">   -281.66136786 </i>
    <i name="e_wo_entrp">   -281.65060705 </i>
    <i name="e_0_energy">   -281.65598745 </i>
   </energy>
  </scstep>
  <scstep>
   <time name="dav">    8.36    8.41</time>
   <time name="total">    8.44    8.50</time>
   <energy>
    <i name="e_fr_energy">   -293.31630356 </i>
    <i name="e_wo_entrp">   -293.30300619 </i>
    <i name="e_0_energy">   -293.30965488 </i>
   </energy>
  </scstep>
  <scstep>
   <time name="dav">    7.85    7.85</time>
   <time name="total">    8.35    8.35</time>
   <energy>
    <i name="e_fr_energy">   -293.63399336 </i>
    <i name="e_wo_entrp">   -293.62063312 </i>
    <i name="e_0_energy">   -293.62731324 </i>
   </energy>
  </scstep>
  <scstep>
   <time name="dav">    7.44    7.44</time>
   <time name="total">    8.27    8.28</time>
   <energy>
    <i name="e_fr_energy">   -286.28580013 </i>
    <i name="e_wo_entrp">   -286.27440619 </i>
    <i name="e_0_energy">   -286.28010316 </i>
   </energy>
  </scstep>
  <scstep>
   <time name="dav">    7.27    7.27</time>
   <time name="total">    8.06    8.07</time>
   <energy>
    <i name="e_fr_energy">   -286.43935088 </i>
    <i name="e_wo_entrp">   -286.42351163 </i>
    <i name="e_0_energy">   -286.43143126 </i>
   </energy>
  </scstep>
  <scstep>
   <time name="dav">    7.76    7.78</time>
   <time name="total">    8.55    8.58</time>
   <energy>
    <i name="e_fr_energy">   -282.53202400 </i>
    <i name="e_wo_entrp">   -282.51996255 </i>
    <i name="e_0_energy">   -282.52599327 </i>
   </energy>
  </scstep>
  <scstep>
   <time name="dav">    7.64    7.65</time>
   <time name="total">    8.44    8.45</time>
   <energy>
    <i name="e_fr_energy">   -282.34821574 </i>
    <i name="e_wo_entrp">   -282.33878250 </i>
    <i name="e_0_energy">   -282.34349912 </i>
   </energy>
  </scstep>
  <scstep>
   <time name="dav">    7.62    7.62</time>
   <time name="total">    8.42    8.42</time>
   <energy>
    <i name="e_fr_energy">   -282.32270384 </i>
    <i name="e_wo_entrp">   -282.31227624 </i>
    <i name="e_0_energy">   -282.31749004 </i>
   </energy>
  </scstep>
  <scstep>
   <time name="dav">    7.40    7.41</time>
   <time name="total">    8.26    8.26</time>
   <energy>
    <i name="e_fr_energy">   -282.28621745 </i>
    <i name="e_wo_entrp">   -282.27619696 </i>
    <i name="e_0_energy">   -282.28120720 </i>
   </energy>
  </scstep>
  <scstep>
   <time name="dav">    7.68    7.70</time>
   <time name="total">    8.50    8.53</time>
   <energy>
    <i name="e_fr_energy">   -282.28380256 </i>
    <i name="e_wo_entrp">   -282.27368581 </i>
    <i name="e_0_energy">   -282.27874419 </i>
   </energy>
  </scstep>
  <scstep>
   <time name="dav">    8.06    8.06</time>
   <time name="total">    8.85    8.86</time>
   <energy>
    <i name="e_fr_energy">   -282.26500932 </i>
    <i name="e_wo_entrp">   -282.25492175 </i>
    <i name="e_0_energy">   -282.25996553 </i>
   </energy>
  </scstep>
  <scstep>
   <time name="dav">    7.22    7.23</time>
   <time name="total">    8.02    8.03</time>
   <energy>
    <i name="e_fr_energy">   -282.26407281 </i>
    <i name="e_wo_entrp">   -282.25410562 </i>
    <i name="e_0_energy">   -282.25908922 </i>
   </energy>
  </scstep>
  <scstep>
   <time name="dav">    8.08    8.10</time>
   <time name="total">    8.87    8.89</time>
   <energy>
    <i name="e_fr_energy">   -282.26243470 </i>
    <i name="e_wo_entrp">   -282.25236294 </i>
    <i name="e_0_energy">   -282.25739882 </i>
   </energy>
  </scstep>
  <scstep>
   <time name="dav">    6.89    6.89</time>
   <time name="total">    7.71    7.72</time>
   <energy>
    <i name="e_fr_energy">   -282.25996821 </i>
    <i name="e_wo_entrp">   -282.24994397 </i>
    <i name="e_0_energy">   -282.25495609 </i>
   </energy>
  </scstep>
  <scstep>
   <time name="dav">    7.13    7.13</time>
   <time name="total">    7.98    7.99</time>
   <energy>
    <i name="e_fr_energy">   -282.25836960 </i>
    <i name="e_wo_entrp">   -282.24839291 </i>
    <i name="e_0_energy">   -282.25338125 </i>
   </energy>
  </scstep>
  <scstep>
   <time name="dav">    7.54    7.54</time>
   <time name="total">    8.34    8.34</time>
   <energy>
    <i name="e_fr_energy">   -282.25850990 </i>
    <i name="e_wo_entrp">   -282.24849661 </i>
    <i name="e_0_energy">   -282.25350326 </i>
   </energy>
  </scstep>
  <scstep>
   <time name="dav">    7.53    7.55</time>
   <time name="total">    8.33    8.35</time>
   <energy>
    <i name="e_fr_energy">   -282.25930063 </i>
    <i name="e_wo_entrp">   -282.24929539 </i>
    <i name="e_0_energy">   -282.25429801 </i>
   </energy>
  </scstep>
  <scstep>
   <time name="dav">    7.38    7.38</time>
   <time name="total">    8.18    8.18</time>
   <energy>
    <i name="e_fr_energy">   -282.26078689 </i>
    <i name="e_wo_entrp">   -282.25078466 </i>
    <i name="e_0_energy">   -282.25578578 </i>
   </energy>
  </scstep>
  <scstep>
   <time name="dav">    6.72    6.72</time>
   <time name="total">    7.52    7.52</time>
   <energy>
    <i name="e_fr_energy">   -282.26153336 </i>
    <i name="e_wo_entrp">   -282.25152914 </i>
    <i name="e_0_energy">   -282.25653125 </i>
   </energy>
  </scstep>
  <scstep>
   <time name="dav">    6.76    6.76</time>
   <time name="total">    7.57    7.57</time>
   <energy>
    <i name="e_fr_energy">   -282.26182096 </i>
    <i name="e_wo_entrp">   -282.25181470 </i>
    <i name="e_0_energy">   -282.25681783 </i>
   </energy>
  </scstep>
  <scstep>
   <time name="dav">    7.64    7.66</time>
   <time name="total">    8.43    8.46</time>
   <energy>
    <i name="e_fr_energy">   -282.26216144 </i>
    <i name="e_wo_entrp">   -282.25215351 </i>
    <i name="e_0_energy">   -282.25715748 </i>
   </energy>
  </scstep>
  <scstep>
   <time name="dav">    6.95    6.95</time>
   <time name="total">    7.75    7.75</time>
   <energy>
    <i name="e_fr_energy">   -282.26290983 </i>
    <i name="e_wo_entrp">   -282.25290255 </i>
    <i name="e_0_energy">   -282.25790619 </i>
   </energy>
  </scstep>
  <scstep>
   <time name="dav">    6.19    6.19</time>
   <time name="total">    6.99    6.99</time>
   <energy>
    <i name="e_fr_energy">   -282.26318024 </i>
    <i name="e_wo_entrp">   -282.25317164 </i>
    <i name="e_0_energy">   -282.25817594 </i>
   </energy>
  </scstep>
  <scstep>
   <time name="dav">    4.98    4.98</time>
   <time name="total">    5.78    5.79</time>
   <energy>
    <i name="e_fr_energy">   -282.26322226 </i>
    <i name="e_wo_entrp">   -282.25321167 </i>
    <i name="e_0_energy">   -282.25821697 </i>
   </energy>
  </scstep>
  <scstep>
   <time name="dav">    4.98    4.98</time>
   <time name="total">    5.78    5.79</time>
   <energy>
    <i name="e_fr_energy">   -282.26326517 </i>
    <i name="e_wo_entrp">   -282.25325484 </i>
    <i name="e_0_energy">   -282.25826000 </i>
   </energy>
  </scstep>
  <scstep>
   <time name="dav">    5.25    5.27</time>
   <time name="total">    6.05    6.08</time>
   <energy>
    <i name="e_fr_energy">   -282.26330045 </i>
    <i name="e_wo_entrp">   -282.25329057 </i>
    <i name="e_0_energy">   -282.25829551 </i>
   </energy>
  </scstep>
  <scstep>
   <time name="dav">    4.59    4.59</time>
   <time name="total">    5.38    5.39</time>
   <energy>
    <i name="e_fr_energy">   -282.26330748 </i>
    <i name="e_wo_entrp">   -282.25329783 </i>
    <i name="e_0_energy">   -282.25830265 </i>
   </energy>
  </scstep>
  <scstep>
   <time name="dav">    4.32    4.32</time>
   <time name="total">    5.12    5.13</time>
   <energy>
    <i name="e_fr_energy">   -282.26330917 </i>
    <i name="e_wo_entrp">   -282.25329959 </i>
    <i name="e_0_energy">   -282.25830438 </i>
   </energy>
  </scstep>
  <scstep>
   <time name="dav">    4.46    4.46</time>
   <time name="total">    5.26    5.26</time>
   <energy>
    <i name="e_fr_energy">   -282.26331141 </i>
    <i name="e_wo_entrp">   -282.25330199 </i>
    <i name="e_0_energy">   -282.25830670 </i>
   </energy>
  </scstep>
  <scstep>
   <time name="dav">    4.53    4.53</time>
   <time name="total">    5.33    5.33</time>
   <energy>
    <i name="e_fr_energy">   -282.26331290 </i>
    <i name="e_wo_entrp">   -282.25330349 </i>
    <i name="e_0_energy">   -282.25830819 </i>
   </energy>
  </scstep>
  <scstep>
   <time name="dav">    4.65    4.66</time>
   <time name="total">    5.02    5.04</time>
   <energy>
    <i name="alphaZ">    196.90117899 </i>
    <i name="ewald">  13181.90509462 </i>
    <i name="hartreedc"> -23332.87184844 </i>
    <i name="XCdc">  -1832.03547977 </i>
    <i name="pawpsdc">  20874.78700468 </i>
    <i name="pawaedc"> -18564.37199558 </i>
    <i name="eentropy">     -0.01000931 </i>
    <i name="bandstr">  -1208.21014308 </i>
    <i name="atom">  10401.64288489 </i>
    <i name="e_fr_energy">   -282.26331302 </i>
    <i name="e_wo_entrp">   -282.25330370 </i>
    <i name="e_0_energy">   -282.25830836 </i>
   </energy>
  </scstep>
  <structure>
   <crystal>
    <varray name="basis" >
     <v>      13.80799961       0.00000000       0.00000000 </v>
     <v>       0.00000000      12.73600006       0.00000000 </v>
     <v>       0.00000000       0.00000000      16.00000000 </v>
    </varray>
    <i name="volume">   2813.73894219 </i>
    <varray name="rec_basis" >
     <v>       0.07242179       0.00000000       0.00000000 </v>
     <v>       0.00000000       0.07851759       0.00000000 </v>
     <v>       0.00000000       0.00000000       0.06250000 </v>
    </varray>
   </crystal>
   <varray name="positions" >
    <v>       0.62499998       0.05253229       0.63219482 </v>
    <v>       0.35902693       0.04988312       0.62533017 </v>
    <v>       0.89097303       0.04988313       0.62533016 </v>
    <v>       0.12500000       0.55102005       0.62959639 </v>
    <v>       0.62499999       0.55023056       0.63207387 </v>
    <v>       0.37203353       0.55048705       0.63028247 </v>
    <v>       0.87796647       0.55048702       0.63028249 </v>
    <v>       0.12500001       0.37468891       0.40554459 </v>
    <v>       0.62500000       0.37615435       0.41035569 </v>
    <v>       0.37590470       0.37519945       0.40887846 </v>
    <v>       0.87409530       0.37519945       0.40887846 </v>
    <v>       0.12500002       0.86896629       0.39912073 </v>
    <v>       0.62500000       0.87617969       0.41091999 </v>
    <v>       0.37496618       0.87646923       0.40979215 </v>
    <v>       0.87503382       0.87646923       0.40979216 </v>
    <v>       0.99781858       0.12959665       0.36446876 </v>
    <v>       0.50139039       0.12649428       0.37229914 </v>
    <v>       0.25218144       0.12959659       0.36446874 </v>
    <v>       0.74860961       0.12649429       0.37229916 </v>
    <v>       0.99883410       0.62650424       0.37071592 </v>
    <v>       0.49980095       0.63126807       0.37488980 </v>
    <v>       0.25116591       0.62650423       0.37071593 </v>
    <v>       0.75019906       0.63126805       0.37488980 </v>
    <v>       0.00532400       0.30014658       0.59165374 </v>
    <v>       0.49717928       0.30392116       0.59322149 </v>
    <v>       0.24467601       0.30014659       0.59165374 </v>
    <v>       0.75282070       0.30392116       0.59322150 </v>
    <v>       0.00782187       0.80983892       0.59036708 </v>
    <v>       0.49737638       0.80635992       0.59529354 </v>
    <v>       0.24217811       0.80983896       0.59036706 </v>
    <v>       0.75262361       0.80635992       0.59529355 </v>
    <v>       0.12500003       0.17009351       0.48819960 </v>
    <v>       0.62500000       0.18161874       0.49629288 </v>
    <v>       0.37330376       0.17960010       0.49205145 </v>
    <v>       0.87669623       0.17960009       0.49205145 </v>
    <v>       0.12500001       0.67705487       0.49172526 </v>
    <v>       0.62500000       0.68223076       0.49811356 </v>
    <v>       0.37174260       0.68214493       0.49649107 </v>
    <v>       0.87825740       0.68214493       0.49649107 </v>
    <v>       0.01291220       0.00199580       0.49879126 </v>
    <v>       0.49930511       0.00112825       0.50906440 </v>
    <v>       0.23708783       0.00199580       0.49879122 </v>
    <v>       0.75069486       0.00112827       0.50906440 </v>
    <v>       0.00296118       0.49691377       0.50598297 </v>
    <v>       0.49906132       0.50048899       0.50879053 </v>
    <v>       0.24703883       0.49691379       0.50598296 </v>
    <v>       0.75093867       0.50048898       0.50879054 </v>
   </varray>
  </structure>
  <varray name="forces" >
   <v>      -0.00000007      -0.00152679       0.00272010 </v>
   <v>       0.00057417       0.00095360       0.00182506 </v>
   <v>      -0.00057530       0.00095479       0.00183016 </v>
   <v>       0.00000064      -0.00065539      -0.00114240 </v>
   <v>      -0.00000067      -0.00048733      -0.00284516 </v>
   <v>      -0.00067324       0.00056415       0.00210181 </v>
   <v>       0.00067393       0.00056468       0.00210130 </v>
   <v>       0.00000061       0.00062009       0.00030370 </v>
   <v>      -0.00000036      -0.00184071       0.00239104 </v>
   <v>       0.00092333       0.00089536      -0.00004010 </v>
   <v>      -0.00092329       0.00089482      -0.00004026 </v>
   <v>       0.00000044       0.00017742       0.00249870 </v>
   <v>      -0.00000136       0.00266949       0.00146913 </v>
   <v>      -0.00192639       0.00027048       0.00119413 </v>
   <v>       0.00192705       0.00027183       0.00119480 </v>
   <v>       0.00082072       0.00023632      -0.00429075 </v>
   <v>       0.00041839      -0.00030653      -0.00216164 </v>
   <v>      -0.00081966       0.00023826      -0.00428963 </v>
   <v>      -0.00042054      -0.00030638      -0.00216702 </v>
   <v>      -0.00064857      -0.00241395       0.00010313 </v>
   <v>      -0.00023327       0.00014103      -0.00253139 </v>
   <v>       0.00065012      -0.00241311       0.00010063 </v>
   <v>       0.00023156       0.00014001      -0.00253166 </v>
   <v>       0.00149972       0.00197658      -0.00012199 </v>
   <v>       0.00072326       0.00060385      -0.00020048 </v>
   <v>      -0.00149914       0.00197737      -0.00012313 </v>
   <v>      -0.00072362       0.00060360      -0.00020111 </v>
   <v>       0.00041169      -0.00025770      -0.00094904 </v>
   <v>       0.00057971       0.00107786      -0.00056716 </v>
   <v>      -0.00041012      -0.00025765      -0.00094761 </v>
   <v>      -0.00058008       0.00107718      -0.00056762 </v>
   <v>       0.00000082       0.00073593      -0.00167124 </v>
   <v>      -0.00000215       0.00367339       0.00567903 </v>
   <v>      -0.00025578      -0.00384380       0.00642108 </v>
   <v>       0.00025811      -0.00383807       0.00642452 </v>
   <v>      -0.00000079       0.00127782      -0.00337167 </v>
   <v>      -0.00000119       0.00178593       0.00536205 </v>
   <v>       0.00115093       0.00157801       0.00109658 </v>
   <v>      -0.00114959       0.00157495       0.00109827 </v>
   <v>      -0.00300978       0.00223940      -0.00100781 </v>
   <v>      -0.00055362      -0.00105116       0.00090806 </v>
   <v>       0.00301460       0.00223789      -0.00100009 </v>
   <v>       0.00054975      -0.00105550       0.00090947 </v>
   <v>      -0.00202072      -0.00291857      -0.00406190 </v>
   <v>      -0.00102794      -0.00295948      -0.00342065 </v>
   <v>       0.00201973      -0.00292139      -0.00405843 </v>
   <v>       0.00102794      -0.00295860      -0.00342281 </v>
  </varray>
  <varray name="stress" >
   <v>      -5.27157195       0.00000164      -0.00000450 </v>
   <v>       0.00000157      -3.31090130       0.00958825 </v>
   <v>      -0.00000435       0.00958813      -0.12009026 </v>
  </varray>
  <energy>
   <i name="e_fr_energy">   -282.26331302 </i>
   <i name="e_wo_entrp">   -282.25830836 </i>
   <i name="e_0_energy">     -0.01000931 </i>
  </energy>
  <scstep>
   <time name="total">   11.09   11.12</time>
   <energy>
    <i name="e_fr_energy">   -112.23826399 </i>
    <i name="e_wo_entrp">   -112.23826400 </i>
    <i name="e_0_energy">   -112.23826400 </i>
   </energy>
  </scstep>
  <scstep>
   <time name="total">    9.51    9.52</time>
   <energy>
    <i name="e_fr_energy">   -108.30457197 </i>
    <i name="e_wo_entrp">   -108.30457198 </i>
    <i name="e_0_energy">   -108.30457197 </i>
   </energy>
  </scstep>
  <scstep>
   <time name="total">    9.42    9.88</time>
   <energy>
    <i name="e_fr_energy">   -108.51322495 </i>
    <i name="e_wo_entrp">   -108.51322123 </i>
    <i name="e_0_energy">   -108.51322309 </i>
   </energy>
  </scstep>
  <scstep>
   <time name="total">    9.33    9.37</time>
   <energy>
    <i name="e_fr_energy">   -108.24259220 </i>
    <i name="e_wo_entrp">   -108.24259220 </i>
    <i name="e_0_energy">   -108.24259220 </i>
   </energy>
  </scstep>
  <scstep>
   <time name="total">    9.71    9.72</time>
   <energy>
    <i name="e_fr_energy">   -108.09698512 </i>
    <i name="e_wo_entrp">   -108.09698723 </i>
    <i name="e_0_energy">   -108.09698618 </i>
   </energy>
  </scstep>
  <scstep>
   <time name="total">    9.35    9.35</time>
   <energy>
    <i name="e_fr_energy">   -108.09495517 </i>
    <i name="e_wo_entrp">   -108.09495500 </i>
    <i name="e_0_energy">   -108.09495508 </i>
   </energy>
  </scstep>
  <scstep>
   <time name="total">    9.57    9.60</time>
   <energy>
    <i name="e_fr_energy">   -108.10894791 </i>
    <i name="e_wo_entrp">   -108.10894771 </i>
    <i name="e_0_energy">   -108.10894781 </i>
   </energy>
  </scstep>
  <scstep>
   <time name="total">    9.78    9.79</time>
   <energy>
    <i name="e_fr_energy">   -108.12172450 </i>
    <i name="e_wo_entrp">   -108.12172448 </i>
    <i name="e_0_energy">   -108.12172449 </i>
   </energy>
  </scstep>
  <scstep>
   <time name="total">    9.59    9.59</time>
   <energy>
    <i name="e_fr_energy">   -108.12745543 </i>
    <i name="e_wo_entrp">   -108.12745575 </i>
    <i name="e_0_energy">   -108.12745559 </i>
   </energy>
  </scstep>
  <scstep>
   <time name="total">    9.78    9.81</time>
   <energy>
    <i name="e_fr_energy">   -108.12713203 </i>
    <i name="e_wo_entrp">   -108.12713179 </i>
    <i name="e_0_energy">   -108.12713191 </i>
   </energy>
  </scstep>
  <scstep>
   <time name="total">   10.93   10.97</time>
   <energy>
    <i name="e_fr_energy">   -110.94178780 </i>
    <i name="e_wo_entrp">   -110.93985232 </i>
    <i name="e_0_energy">   -110.94082006 </i>
   </energy>
  </scstep>
  <scstep>
   <time name="total">    9.27    9.27</time>
   <energy>
    <i name="e_fr_energy">   -108.03403192 </i>
    <i name="e_wo_entrp">   -108.03209644 </i>
    <i name="e_0_energy">   -108.03306418 </i>
   </energy>
  </scstep>
  <scstep>
   <time name="total">    9.49    9.50</time>
   <energy>
    <i name="e_fr_energy">   -108.16560890 </i>
    <i name="e_wo_entrp">   -108.16094879 </i>
    <i name="e_0_energy">   -108.16327884 </i>
   </energy>
  </scstep>
  <scstep>
   <time name="total">    9.39    9.42</time>
   <energy>
    <i name="e_fr_energy">   -107.95867043 </i>
    <i name="e_wo_entrp">   -107.95598533 </i>
    <i name="e_0_energy">   -107.95732788 </i>
   </energy>
  </scstep>
  <scstep>
   <time name="total">    9.71    9.71</time>
   <energy>
    <i name="e_fr_energy">   -107.83236878 </i>
    <i name="e_wo_entrp">   -107.82964890 </i>
    <i name="e_0_energy">   -107.83100884 </i>
   </energy>
  </scstep>
  <scstep>
   <time name="total">    9.48    9.48</time>
   <energy>
    <i name="e_fr_energy">   -107.84332207 </i>
    <i name="e_wo_entrp">   -107.84083277 </i>
    <i name="e_0_energy">   -107.84207742 </i>
   </energy>
  </scstep>
  <scstep>
   <time name="total">    9.59    9.60</time>
   <energy>
    <i name="e_fr_energy">   -107.85845190 </i>
    <i name="e_wo_entrp">   -107.85575489 </i>
    <i name="e_0_energy">   -107.85710339 </i>
   </energy>
  </scstep>
  <scstep>
   <time name="total">    9.77    9.80</time>
   <energy>
    <i name="e_fr_energy">   -107.87277936 </i>
    <i name="e_wo_entrp">   -107.87005326 </i>
    <i name="e_0_energy">   -107.87141631 </i>
   </energy>
  </scstep>
  <scstep>
   <time name="total">    9.63    9.63</time>
   <energy>
    <i name="e_fr_energy">   -107.88182472 </i>
    <i name="e_wo_entrp">   -107.87908968 </i>
    <i name="e_0_energy">   -107.88045720 </i>
   </energy>
  </scstep>
  <scstep>
   <time name="total">    9.76    9.76</time>
   <energy>
    <i name="e_fr_energy">   -107.88268607 </i>
    <i name="e_wo_entrp">   -107.87995872 </i>
    <i name="e_0_energy">   -107.88132240 </i>
   </energy>
  </scstep>
  <scstep>
   <time name="total">   11.27   11.27</time>
   <energy>
    <i name="e_fr_energy">   -116.49478534 </i>
    <i name="e_wo_entrp">   -116.49326356 </i>
    <i name="e_0_energy">   -116.49402445 </i>
   </energy>
  </scstep>
  <scstep>
   <time name="total">    9.80    9.82</time>
   <energy>
    <i name="e_fr_energy">   -110.63063176 </i>
    <i name="e_wo_entrp">   -110.62910998 </i>
    <i name="e_0_energy">   -110.62987087 </i>
   </energy>
  </scstep>
  <scstep>
   <time name="total">    9.59    9.92</time>
   <energy>
    <i name="e_fr_energy">   -110.84909387 </i>
    <i name="e_wo_entrp">   -110.84949139 </i>
    <i name="e_0_energy">   -110.84929263 </i>
   </energy>
  </scstep>
  <scstep>
   <time name="total">    9.22    9.22</time>
   <energy>
    <i name="e_fr_energy">   -110.34271614 </i>
    <i name="e_wo_entrp">   -110.34133223 </i>
    <i name="e_0_energy">   -110.34202418 </i>
   </energy>
  </scstep>
  <scstep>
   <time name="total">    9.57    9.61</time>
   <energy>
    <i name="e_fr_energy">   -110.15704559 </i>
    <i name="e_wo_entrp">   -110.15571597 </i>
    <i name="e_0_energy">   -110.15638078 </i>
   </energy>
  </scstep>
  <scstep>
   <time name="total">    9.44    9.45</time>
   <energy>
    <i name="e_fr_energy">   -110.06990211 </i>
    <i name="e_wo_entrp">   -110.06817481 </i>
    <i name="e_0_energy">   -110.06903846 </i>
   </energy>
  </scstep>
  <scstep>
   <time name="total">    9.61    9.61</time>
   <energy>
    <i name="e_fr_energy">   -110.07522531 </i>
    <i name="e_wo_entrp">   -110.07386409 </i>
    <i name="e_0_energy">   -110.07454470 </i>
   </energy>
  </scstep>
  <scstep>
   <time name="total">    9.67    9.70</time>
   <energy>
    <i name="e_fr_energy">   -110.08122488 </i>
    <i name="e_wo_entrp">   -110.07979249 </i>
    <i name="e_0_energy">   -110.08050869 </i>
   </energy>
  </scstep>
  <scstep>
   <time name="total">    9.46    9.46</time>
   <energy>
    <i name="e_fr_energy">   -110.08045566 </i>
    <i name="e_wo_entrp">   -110.07906989 </i>
    <i name="e_0_energy">   -110.07976278 </i>
   </energy>
  </scstep>
  <scstep>
   <time name="total">   11.01   11.01</time>
   <energy>
    <i name="e_fr_energy">   -112.01656508 </i>
    <i name="e_wo_entrp">   -112.01715872 </i>
    <i name="e_0_energy">   -112.01686190 </i>
   </energy>
  </scstep>
  <scstep>
   <time name="total">    9.36    9.37</time>
   <energy>
    <i name="e_fr_energy">   -108.94078539 </i>
    <i name="e_wo_entrp">   -108.94137903 </i>
    <i name="e_0_energy">   -108.94108221 </i>
   </energy>
  </scstep>
  <scstep>
   <time name="total">    9.38    9.42</time>
   <energy>
    <i name="e_fr_energy">   -109.14410337 </i>
    <i name="e_wo_entrp">   -109.14596356 </i>
    <i name="e_0_energy">   -109.14503346 </i>
   </energy>
  </scstep>
  <scstep>
   <time name="total">    9.22    9.23</time>
   <energy>
    <i name="e_fr_energy">   -108.74035300 </i>
    <i name="e_wo_entrp">   -108.74141916 </i>
    <i name="e_0_energy">   -108.74088608 </i>
   </energy>
  </scstep>
  <scstep>
   <time name="total">    9.56    9.56</time>
   <energy>
    <i name="e_fr_energy">   -108.57797672 </i>
    <i name="e_wo_entrp">   -108.57869304 </i>
    <i name="e_0_energy">   -108.57833488 </i>
   </energy>
  </scstep>
  <scstep>
   <time name="total">    9.30    9.30</time>
   <energy>
    <i name="e_fr_energy">   -108.53219837 </i>
    <i name="e_wo_entrp">   -108.53312671 </i>
    <i name="e_0_energy">   -108.53266254 </i>
   </energy>
  </scstep>
  <scstep>
   <time name="total">    9.72    9.77</time>
   <energy>
    <i name="e_fr_energy">   -108.55506984 </i>
    <i name="e_wo_entrp">   -108.55598170 </i>
    <i name="e_0_energy">   -108.55552577 </i>
   </energy>
  </scstep>
  <scstep>
   <time name="total">    9.67    9.68</time>
   <energy>
    <i name="e_fr_energy">   -108.56618958 </i>
    <i name="e_wo_entrp">   -108.56715916 </i>
    <i name="e_0_energy">   -108.56667437 </i>
   </energy>
  </scstep>
  <scstep>
   <time name="total">    9.55    9.55</time>
   <energy>
    <i name="e_fr_energy">   -108.57949721 </i>
    <i name="e_wo_entrp">   -108.58045750 </i>
    <i name="e_0_energy">   -108.57997735 </i>
   </energy>
  </scstep>
  <scstep>
   <time name="total">    9.59    9.70</time>
   <energy>
    <i name="e_fr_energy">   -108.58261921 </i>
    <i name="e_wo_entrp">   -108.58356451 </i>
    <i name="e_0_energy">   -108.58309186 </i>
   </energy>
  </scstep>
  <scstep>
   <time name="total">    9.66    9.66</time>
   <energy>
    <i name="e_fr_energy">   -108.58305465 </i>
    <i name="e_wo_entrp">   -108.58400760 </i>
    <i name="e_0_energy">   -108.58353112 </i>
   </energy>
  </scstep>
  <scstep>
   <time name="total">   10.78   10.78</time>
   <energy>
    <i name="e_fr_energy">   -111.19999478 </i>
    <i name="e_wo_entrp">   -111.20020261 </i>
    <i name="e_0_energy">   -111.20009869 </i>
   </energy>
  </scstep>
  <scstep>
   <time name="total">    9.36    9.37</time>
   <energy>
    <i name="e_fr_energy">   -108.25317502 </i>
    <i name="e_wo_entrp">   -108.25338286 </i>
    <i name="e_0_energy">   -108.25327894 </i>
   </energy>
  </scstep>
  <scstep>
   <time name="total">    9.51    9.53</time>
   <energy>
    <i name="e_fr_energy">   -108.35098627 </i>
    <i name="e_wo_entrp">   -108.35239132 </i>
    <i name="e_0_energy">   -108.35168880 </i>
   </energy>
  </scstep>
  <scstep>
   <time name="total">    9.60    9.71</time>
   <energy>
    <i name="e_fr_energy">   -108.13768780 </i>
    <i name="e_wo_entrp">   -108.13806005 </i>
    <i name="e_0_energy">   -108.13787392 </i>
   </energy>
  </scstep>
  <scstep>
   <time name="total">    9.64    9.64</time>
   <energy>
    <i name="e_fr_energy">   -107.99264773 </i>
    <i name="e_wo_entrp">   -107.99300401 </i>
    <i name="e_0_energy">   -107.99282587 </i>
   </energy>
  </scstep>
  <scstep>
   <time name="total">    9.61    9.65</time>
   <energy>
    <i name="e_fr_energy">   -107.99236308 </i>
    <i name="e_wo_entrp">   -107.99280077 </i>
    <i name="e_0_energy">   -107.99258193 </i>
   </energy>
  </scstep>
  <scstep>
   <time name="total">    9.71    9.72</time>
   <energy>
    <i name="e_fr_energy">   -108.01154826 </i>
    <i name="e_wo_entrp">   -108.01202613 </i>
    <i name="e_0_energy">   -108.01178720 </i>
   </energy>
  </scstep>
  <scstep>
   <time name="total">    9.64    9.65</time>
   <energy>
    <i name="e_fr_energy">   -108.02229377 </i>
    <i name="e_wo_entrp">   -108.02279767 </i>
    <i name="e_0_energy">   -108.02254572 </i>
   </energy>
  </scstep>
  <scstep>
   <time name="total">    9.63    9.63</time>
   <energy>
    <i name="e_fr_energy">   -108.03400561 </i>
    <i name="e_wo_entrp">   -108.03449916 </i>
    <i name="e_0_energy">   -108.03425238 </i>
   </energy>
  </scstep>
  <scstep>
   <time name="total">    9.74    9.77</time>
   <energy>
    <i name="e_fr_energy">   -108.03517925 </i>
    <i name="e_wo_entrp">   -108.03567160 </i>
    <i name="e_0_energy">   -108.03542542 </i>
   </energy>
  </scstep>
  <scstep>
   <time name="total">   11.19   11.22</time>
   <energy>
    <i name="e_fr_energy">   -116.19898246 </i>
    <i name="e_wo_entrp">   -116.19746092 </i>
    <i name="e_0_energy">   -116.19822169 </i>
   </energy>
  </scstep>
  <scstep>
   <time name="total">    9.65    9.65</time>
   <energy>
    <i name="e_fr_energy">   -110.67905462 </i>
    <i name="e_wo_entrp">   -110.67753308 </i>
    <i name="e_0_energy">   -110.67829385 </i>
   </energy>
  </scstep>
  <scstep>
   <time name="total">    9.42    9.42</time>
   <energy>
    <i name="e_fr_energy">   -111.05218810 </i>
    <i name="e_wo_entrp">   -111.04988192 </i>
    <i name="e_0_energy">   -111.05103501 </i>
   </energy>
  </scstep>
  <scstep>
   <time name="total">    9.29    9.32</time>
   <energy>
    <i name="e_fr_energy">   -110.31288111 </i>
    <i name="e_wo_entrp">   -110.31126748 </i>
    <i name="e_0_energy">   -110.31207430 </i>
   </energy>
  </scstep>
  <scstep>
   <time name="total">    9.46    9.47</time>
   <energy>
    <i name="e_fr_energy">   -110.17871100 </i>
    <i name="e_wo_entrp">   -110.17628981 </i>
    <i name="e_0_energy">   -110.17750041 </i>
   </energy>
  </scstep>
  <scstep>
   <time name="total">    9.37    9.37</time>
   <energy>
    <i name="e_fr_energy">   -110.01991003 </i>
    <i name="e_wo_entrp">   -110.01778571 </i>
    <i name="e_0_energy">   -110.01884787 </i>
   </energy>
  </scstep>
  <scstep>
   <time name="total">    9.62    9.65</time>
   <energy>
    <i name="e_fr_energy">   -110.02929728 </i>
    <i name="e_wo_entrp">   -110.02738420 </i>
    <i name="e_0_energy">   -110.02834074 </i>
   </energy>
  </scstep>
  <scstep>
   <time name="total">    9.61    9.61</time>
   <energy>
    <i name="e_fr_energy">   -110.03928178 </i>
    <i name="e_wo_entrp">   -110.03723765 </i>
    <i name="e_0_energy">   -110.03825972 </i>
   </energy>
  </scstep>
  <scstep>
   <time name="total">    9.46    9.47</time>
   <energy>
    <i name="e_fr_energy">   -110.04333012 </i>
    <i name="e_wo_entrp">   -110.04140856 </i>
    <i name="e_0_energy">   -110.04236934 </i>
   </energy>
  </scstep>
  <scstep>
   <time name="total">    9.56    9.58</time>
   <energy>
    <i name="e_fr_energy">   -110.04031859 </i>
    <i name="e_wo_entrp">   -110.03834768 </i>
    <i name="e_0_energy">   -110.03933313 </i>
   </energy>
  </scstep>
  <scstep>
   <time name="total">    9.68    9.68</time>
   <energy>
    <i name="e_fr_energy">   -110.03779952 </i>
    <i name="e_wo_entrp">   -110.03583782 </i>
    <i name="e_0_energy">   -110.03681867 </i>
   </energy>
  </scstep>
  <scstep>
   <time name="total">    9.65    9.66</time>
   <energy>
    <i name="e_fr_energy">   -110.03637079 </i>
    <i name="e_wo_entrp">   -110.03441074 </i>
    <i name="e_0_energy">   -110.03539076 </i>
   </energy>
  </scstep>
  <scstep>
   <time name="total">   11.03   11.03</time>
   <energy>
    <i name="e_fr_energy">   -112.01776362 </i>
    <i name="e_wo_entrp">   -112.01716998 </i>
    <i name="e_0_energy">   -112.01746680 </i>
   </energy>
  </scstep>
  <scstep>
   <time name="total">    9.44    9.80</time>
   <energy>
    <i name="e_fr_energy">   -108.94056721 </i>
    <i name="e_wo_entrp">   -108.93997357 </i>
    <i name="e_0_energy">   -108.94027039 </i>
   </energy>
  </scstep>
  <scstep>
   <time name="total">    9.56    9.60</time>
   <energy>
    <i name="e_fr_energy">   -109.14378383 </i>
    <i name="e_wo_entrp">   -109.14192548 </i>
    <i name="e_0_energy">   -109.14285465 </i>
   </energy>
  </scstep>
  <scstep>
   <time name="total">    9.13    9.13</time>
   <energy>
    <i name="e_fr_energy">   -108.74259751 </i>
    <i name="e_wo_entrp">   -108.74153046 </i>
    <i name="e_0_energy">   -108.74206398 </i>
   </energy>
  </scstep>
  <scstep>
   <time name="total">    9.58    9.58</time>
   <energy>
    <i name="e_fr_energy">   -108.57834652 </i>
    <i name="e_wo_entrp">   -108.57763551 </i>
    <i name="e_0_energy">   -108.57799101 </i>
   </energy>
  </scstep>
  <scstep>
   <time name="total">    9.49    9.51</time>
   <energy>
    <i name="e_fr_energy">   -108.53438491 </i>
    <i name="e_wo_entrp">   -108.53345212 </i>
    <i name="e_0_energy">   -108.53391851 </i>
   </energy>
  </scstep>
  <scstep>
   <time name="total">    9.65    9.66</time>
   <energy>
    <i name="e_fr_energy">   -108.55701732 </i>
    <i name="e_wo_entrp">   -108.55610307 </i>
    <i name="e_0_energy">   -108.55656020 </i>
   </energy>
  </scstep>
  <scstep>
   <time name="total">    9.67    9.67</time>
   <energy>
    <i name="e_fr_energy">   -108.56820785 </i>
    <i name="e_wo_entrp">   -108.56723647 </i>
    <i name="e_0_energy">   -108.56772216 </i>
   </energy>
  </scstep>
  <scstep>
   <time name="total">    9.57    9.60</time>
   <energy>
    <i name="e_fr_energy">   -108.58150844 </i>
    <i name="e_wo_entrp">   -108.58054793 </i>
    <i name="e_0_energy">   -108.58102818 </i>
   </energy>
  </scstep>
  <scstep>
   <time name="total">    9.67    9.67</time>
   <energy>
    <i name="e_fr_energy">   -108.58451587 </i>
    <i name="e_wo_entrp">   -108.58357082 </i>
    <i name="e_0_energy">   -108.58404334 </i>
   </energy>
  </scstep>
  <scstep>
   <time name="total">    9.61    9.62</time>
   <energy>
    <i name="e_fr_energy">   -108.58496820 </i>
    <i name="e_wo_entrp">   -108.58401543 </i>
    <i name="e_0_energy">   -108.58449182 </i>
   </energy>
  </scstep>
  <scstep>
   <time name="total">   10.78   10.79</time>
   <energy>
    <i name="e_fr_energy">   -111.20000475 </i>
    <i name="e_wo_entrp">   -111.20021259 </i>
    <i name="e_0_energy">   -111.20010867 </i>
   </energy>
  </scstep>
  <scstep>
   <time name="total">    9.47    9.49</time>
   <energy>
    <i name="e_fr_energy">   -108.25327361 </i>
    <i name="e_wo_entrp">   -108.25348146 </i>
    <i name="e_0_energy">   -108.25337753 </i>
   </energy>
  </scstep>
  <scstep>
   <time name="total">    9.46    9.46</time>
   <energy>
    <i name="e_fr_energy">   -108.35010100 </i>
    <i name="e_wo_entrp">   -108.35150818 </i>
    <i name="e_0_energy">   -108.35080459 </i>
   </energy>
  </scstep>
  <scstep>
   <time name="total">    9.21    9.21</time>
   <energy>
    <i name="e_fr_energy">   -108.13746421 </i>
    <i name="e_wo_entrp">   -108.13783826 </i>
    <i name="e_0_energy">   -108.13765123 </i>
   </energy>
  </scstep>
  <scstep>
   <time name="total">    9.71    9.71</time>
   <energy>
    <i name="e_fr_energy">   -107.99218546 </i>
    <i name="e_wo_entrp">   -107.99254053 </i>
    <i name="e_0_energy">   -107.99236300 </i>
   </energy>
  </scstep>
  <scstep>
   <time name="total">    9.68    9.73</time>
   <energy>
    <i name="e_fr_energy">   -107.99212891 </i>
    <i name="e_wo_entrp">   -107.99256871 </i>
    <i name="e_0_energy">   -107.99234881 </i>
   </energy>
  </scstep>
  <scstep>
   <time name="total">    9.61    9.62</time>
   <energy>
    <i name="e_fr_energy">   -108.01132041 </i>
    <i name="e_wo_entrp">   -108.01179882 </i>
    <i name="e_0_energy">   -108.01155961 </i>
   </energy>
  </scstep>
  <scstep>
   <time name="total">    9.69    9.70</time>
   <energy>
    <i name="e_fr_energy">   -108.02227207 </i>
    <i name="e_wo_entrp">   -108.02277749 </i>
    <i name="e_0_energy">   -108.02252478 </i>
   </energy>
  </scstep>
  <scstep>
   <time name="total">    9.58    9.69</time>
   <energy>
    <i name="e_fr_energy">   -108.03397133 </i>
    <i name="e_wo_entrp">   -108.03446432 </i>
    <i name="e_0_energy">   -108.03421783 </i>
   </energy>
  </scstep>
  <scstep>
   <time name="total">    9.67    9.67</time>
   <energy>
    <i name="e_fr_energy">   -108.03512585 </i>
    <i name="e_wo_entrp">   -108.03561824 </i>
    <i name="e_0_energy">   -108.03537204 </i>
   </energy>
  </scstep>
  <scstep>
   <time name="total">   11.49   11.53</time>
   <energy>
    <i name="e_fr_energy">   -116.19899205 </i>
    <i name="e_wo_entrp">   -116.19747049 </i>
    <i name="e_0_energy">   -116.19823127 </i>
   </energy>
  </scstep>
  <scstep>
   <time name="total">    9.64    9.65</time>
   <energy>
    <i name="e_fr_energy">   -110.67915828 </i>
    <i name="e_wo_entrp">   -110.67763671 </i>
    <i name="e_0_energy">   -110.67839749 </i>
   </energy>
  </scstep>
  <scstep>
   <time name="total">    9.54    9.57</time>
   <energy>
    <i name="e_fr_energy">   -111.04831811 </i>
    <i name="e_wo_entrp">   -111.04600453 </i>
    <i name="e_0_energy">   -111.04716132 </i>
   </energy>
  </scstep>
  <scstep>
   <time name="total">    9.15    9.15</time>
   <energy>
    <i name="e_fr_energy">   -110.31292533 </i>
    <i name="e_wo_entrp">   -110.31131458 </i>
    <i name="e_0_energy">   -110.31211995 </i>
   </energy>
  </scstep>
  <scstep>
   <time name="total">    9.45    9.46</time>
   <energy>
    <i name="e_fr_energy">   -110.17787569 </i>
    <i name="e_wo_entrp">   -110.17543376 </i>
    <i name="e_0_energy">   -110.17665473 </i>
   </energy>
  </scstep>
  <scstep>
   <time name="total">    9.39    9.41</time>
   <energy>
    <i name="e_fr_energy">   -110.02017877 </i>
    <i name="e_wo_entrp">   -110.01806483 </i>
    <i name="e_0_energy">   -110.01912180 </i>
   </energy>
  </scstep>
  <scstep>
   <time name="total">    9.61    9.61</time>
   <energy>
    <i name="e_fr_energy">   -110.02940259 </i>
    <i name="e_wo_entrp">   -110.02749057 </i>
    <i name="e_0_energy">   -110.02844658 </i>
   </energy>
  </scstep>
  <scstep>
   <time name="total">    9.64    9.65</time>
   <energy>
    <i name="e_fr_energy">   -110.03931155 </i>
    <i name="e_wo_entrp">   -110.03727134 </i>
    <i name="e_0_energy">   -110.03829144 </i>
   </energy>
  </scstep>
  <scstep>
   <time name="total">    9.66    9.67</time>
   <energy>
    <i name="e_fr_energy">   -110.04341611 </i>
    <i name="e_wo_entrp">   -110.04148939 </i>
    <i name="e_0_energy">   -110.04245275 </i>
   </energy>
  </scstep>
  <scstep>
   <time name="total">    9.57    9.60</time>
   <energy>
    <i name="e_fr_energy">   -110.04039475 </i>
    <i name="e_wo_entrp">   -110.03842413 </i>
    <i name="e_0_energy">   -110.03940944 </i>
   </energy>
  </scstep>
  <scstep>
   <time name="total">    9.66    9.66</time>
   <energy>
    <i name="e_fr_energy">   -110.03789139 </i>
    <i name="e_wo_entrp">   -110.03592854 </i>
    <i name="e_0_energy">   -110.03690996 </i>
   </energy>
  </scstep>
  <scstep>
   <time name="total">    9.79    9.79</time>
   <energy>
    <i name="e_fr_energy">   -110.03642630 </i>
    <i name="e_wo_entrp">   -110.03446661 </i>
    <i name="e_0_energy">   -110.03544646 </i>
   </energy>
  </scstep>
  <scstep>
   <time name="total">   11.10   11.10</time>
   <energy>
    <i name="e_fr_energy">   -113.11494926 </i>
    <i name="e_wo_entrp">   -113.11494926 </i>
    <i name="e_0_energy">   -113.11494926 </i>
   </energy>
  </scstep>
  <scstep>
   <time name="total">    9.63    9.66</time>
   <energy>
    <i name="e_fr_energy">   -107.76558225 </i>
    <i name="e_wo_entrp">   -107.76558225 </i>
    <i name="e_0_energy">   -107.76558225 </i>
   </energy>
  </scstep>
  <scstep>
   <time name="total">    9.60    9.60</time>
   <energy>
    <i name="e_fr_energy">   -107.95693641 </i>
    <i name="e_wo_entrp">   -107.95693763 </i>
    <i name="e_0_energy">   -107.95693702 </i>
   </energy>
  </scstep>
  <scstep>
   <time name="total">    9.27    9.27</time>
   <energy>
    <i name="e_fr_energy">   -107.71724220 </i>
    <i name="e_wo_entrp">   -107.71724035 </i>
    <i name="e_0_energy">   -107.71724128 </i>
   </energy>
  </scstep>
  <scstep>
   <time name="total">    9.77    9.79</time>
   <energy>
    <i name="e_fr_energy">   -107.55948396 </i>
    <i name="e_wo_entrp">   -107.55949807 </i>
    <i name="e_0_energy">   -107.55949101 </i>
   </energy>
  </scstep>
  <scstep>
   <time name="total">    9.61    9.62</time>
   <energy>
    <i name="e_fr_energy">   -107.57646747 </i>
    <i name="e_wo_entrp">   -107.57645192 </i>
    <i name="e_0_energy">   -107.57645970 </i>
   </energy>
  </scstep>
  <scstep>
   <time name="total">    9.54    9.54</time>
   <energy>
    <i name="e_fr_energy">   -107.58287967 </i>
    <i name="e_wo_entrp">   -107.58287959 </i>
    <i name="e_0_energy">   -107.58287963 </i>
   </energy>
  </scstep>
  <scstep>
   <time name="total">    9.78    9.81</time>
   <energy>
    <i name="e_fr_energy">   -107.59559051 </i>
    <i name="e_wo_entrp">   -107.59559259 </i>
    <i name="e_0_energy">   -107.59559155 </i>
   </energy>
  </scstep>
  <scstep>
   <time name="total">    9.60    9.60</time>
   <energy>
    <i name="e_fr_energy">   -107.59927901 </i>
    <i name="e_wo_entrp">   -107.59927955 </i>
    <i name="e_0_energy">   -107.59927928 </i>
   </energy>
  </scstep>
  <scstep>
   <time name="total">    9.64    9.64</time>
   <energy>
    <i name="e_fr_energy">   -107.59804166 </i>
    <i name="e_wo_entrp">   -107.59804174 </i>
    <i name="e_0_energy">   -107.59804170 </i>
   </energy>
  </scstep>
  <scstep>
   <time name="total">   10.82   10.82</time>
   <energy>
    <i name="e_fr_energy">   -111.68821972 </i>
    <i name="e_wo_entrp">   -111.68426984 </i>
    <i name="e_0_energy">   -111.68624478 </i>
   </energy>
  </scstep>
  <scstep>
   <time name="total">    9.35    9.38</time>
   <energy>
    <i name="e_fr_energy">   -108.33385345 </i>
    <i name="e_wo_entrp">   -108.32990356 </i>
    <i name="e_0_energy">   -108.33187850 </i>
   </energy>
  </scstep>
  <scstep>
   <time name="total">    9.50    9.51</time>
   <energy>
    <i name="e_fr_energy">   -108.50443852 </i>
    <i name="e_wo_entrp">   -108.50053194 </i>
    <i name="e_0_energy">   -108.50248523 </i>
   </energy>
  </scstep>
  <scstep>
   <time name="total">    9.26    9.26</time>
   <energy>
    <i name="e_fr_energy">   -108.33019968 </i>
    <i name="e_wo_entrp">   -108.32664993 </i>
    <i name="e_0_energy">   -108.32842481 </i>
   </energy>
  </scstep>
  <scstep>
   <time name="total">    9.79    9.79</time>
   <energy>
    <i name="e_fr_energy">   -108.22575371 </i>
    <i name="e_wo_entrp">   -108.22204344 </i>
    <i name="e_0_energy">   -108.22389857 </i>
   </energy>
  </scstep>
  <scstep>
   <time name="total">    9.69    9.72</time>
   <energy>
    <i name="e_fr_energy">   -108.23053610 </i>
    <i name="e_wo_entrp">   -108.22729691 </i>
    <i name="e_0_energy">   -108.22891651 </i>
   </energy>
  </scstep>
  <scstep>
   <time name="total">    9.57    9.58</time>
   <energy>
    <i name="e_fr_energy">   -108.24376883 </i>
    <i name="e_wo_entrp">   -108.24031036 </i>
    <i name="e_0_energy">   -108.24203959 </i>
   </energy>
  </scstep>
  <scstep>
   <time name="total">    9.68    9.69</time>
   <energy>
    <i name="e_fr_energy">   -108.25554869 </i>
    <i name="e_wo_entrp">   -108.25202781 </i>
    <i name="e_0_energy">   -108.25378825 </i>
   </energy>
  </scstep>
  <scstep>
   <time name="total">    9.76    9.79</time>
   <energy>
    <i name="e_fr_energy">   -108.26344363 </i>
    <i name="e_wo_entrp">   -108.25993318 </i>
    <i name="e_0_energy">   -108.26168840 </i>
   </energy>
  </scstep>
  <scstep>
   <time name="total">    9.78    9.78</time>
   <energy>
    <i name="e_fr_energy">   -108.26374953 </i>
    <i name="e_wo_entrp">   -108.26024513 </i>
    <i name="e_0_energy">   -108.26199733 </i>
   </energy>
  </scstep>
  <scstep>
   <time name="total">   11.09   11.09</time>
   <energy>
    <i name="e_fr_energy">   -117.47317862 </i>
    <i name="e_wo_entrp">   -117.47457569 </i>
    <i name="e_0_energy">   -117.47387716 </i>
   </energy>
  </scstep>
  <scstep>
   <time name="total">    9.68    9.68</time>
   <energy>
    <i name="e_fr_energy">   -110.94285925 </i>
    <i name="e_wo_entrp">   -110.94425631 </i>
    <i name="e_0_energy">   -110.94355778 </i>
   </energy>
  </scstep>
  <scstep>
   <time name="total">    9.56    9.65</time>
   <energy>
    <i name="e_fr_energy">   -111.17867996 </i>
    <i name="e_wo_entrp">   -111.17639108 </i>
    <i name="e_0_energy">   -111.17753552 </i>
   </energy>
  </scstep>
  <scstep>
   <time name="total">    9.19    9.19</time>
   <energy>
    <i name="e_fr_energy">   -110.66773660 </i>
    <i name="e_wo_entrp">   -110.66832944 </i>
    <i name="e_0_energy">   -110.66803302 </i>
   </energy>
  </scstep>
  <scstep>
   <time name="total">    9.65    9.65</time>
   <energy>
    <i name="e_fr_energy">   -110.48737056 </i>
    <i name="e_wo_entrp">   -110.48741569 </i>
    <i name="e_0_energy">   -110.48739313 </i>
   </energy>
  </scstep>
  <scstep>
   <time name="total">    9.56    9.59</time>
   <energy>
    <i name="e_fr_energy">   -110.40822067 </i>
    <i name="e_wo_entrp">   -110.40821487 </i>
    <i name="e_0_energy">   -110.40821777 </i>
   </energy>
  </scstep>
  <scstep>
   <time name="total">    9.55    9.55</time>
   <energy>
    <i name="e_fr_energy">   -110.40945396 </i>
    <i name="e_wo_entrp">   -110.40967824 </i>
    <i name="e_0_energy">   -110.40956610 </i>
   </energy>
  </scstep>
  <scstep>
   <time name="total">    9.61    9.61</time>
   <energy>
    <i name="e_fr_energy">   -110.41313878 </i>
    <i name="e_wo_entrp">   -110.41320573 </i>
    <i name="e_0_energy">   -110.41317226 </i>
   </energy>
  </scstep>
  <scstep>
   <time name="total">    9.68    9.72</time>
   <energy>
    <i name="e_fr_energy">   -110.41086469 </i>
    <i name="e_wo_entrp">   -110.41091896 </i>
    <i name="e_0_energy">   -110.41089182 </i>
   </energy>
  </scstep>
  <scstep>
   <time name="total">   11.18   11.38</time>
   <energy>
    <i name="e_fr_energy">   -112.30050283 </i>
    <i name="e_wo_entrp">   -112.30050284 </i>
    <i name="e_0_energy">   -112.30050284 </i>
   </energy>
  </scstep>
  <scstep>
   <time name="total">    9.43    9.43</time>
   <energy>
    <i name="e_fr_energy">   -107.71063850 </i>
    <i name="e_wo_entrp">   -107.71063851 </i>
    <i name="e_0_energy">   -107.71063851 </i>
   </energy>
  </scstep>
  <scstep>
   <time name="total">    9.57    9.57</time>
   <energy>
    <i name="e_fr_energy">   -107.88607442 </i>
    <i name="e_wo_entrp">   -107.88608134 </i>
    <i name="e_0_energy">   -107.88607788 </i>
   </energy>
  </scstep>
  <scstep>
   <time name="total">    9.33    9.33</time>
   <energy>
    <i name="e_fr_energy">   -107.66364823 </i>
    <i name="e_wo_entrp">   -107.66364778 </i>
    <i name="e_0_energy">   -107.66364801 </i>
   </energy>
  </scstep>
  <scstep>
   <time name="total">    9.85    9.87</time>
   <energy>
    <i name="e_fr_energy">   -107.49809688 </i>
    <i name="e_wo_entrp">   -107.49809574 </i>
    <i name="e_0_energy">   -107.49809631 </i>
   </energy>
  </scstep>
  <scstep>
   <time name="total">    9.53    9.54</time>
   <energy>
    <i name="e_fr_energy">   -107.50795904 </i>
    <i name="e_wo_entrp">   -107.50795950 </i>
    <i name="e_0_energy">   -107.50795927 </i>
   </energy>
  </scstep>
  <scstep>
   <time name="total">    9.49    9.49</time>
   <energy>
    <i name="e_fr_energy">   -107.51898715 </i>
    <i name="e_wo_entrp">   -107.51898733 </i>
    <i name="e_0_energy">   -107.51898724 </i>
   </energy>
  </scstep>
  <scstep>
   <time name="total">    9.87    9.89</time>
   <energy>
    <i name="e_fr_energy">   -107.53215735 </i>
    <i name="e_wo_entrp">   -107.53215722 </i>
    <i name="e_0_energy">   -107.53215728 </i>
   </energy>
  </scstep>
  <scstep>
   <time name="total">    9.64    9.65</time>
   <energy>
    <i name="e_fr_energy">   -107.53694906 </i>
    <i name="e_wo_entrp">   -107.53694834 </i>
    <i name="e_0_energy">   -107.53694870 </i>
   </energy>
  </scstep>
  <scstep>
   <time name="total">    9.68    9.68</time>
   <energy>
    <i name="e_fr_energy">   -107.53571372 </i>
    <i name="e_wo_entrp">   -107.53571420 </i>
    <i name="e_0_energy">   -107.53571396 </i>
   </energy>
  </scstep>
  <scstep>
   <time name="total">   11.03   11.03</time>
   <energy>
    <i name="e_fr_energy">   -111.20724885 </i>
    <i name="e_wo_entrp">   -111.20318190 </i>
    <i name="e_0_energy">   -111.20521538 </i>
   </energy>
  </scstep>
  <scstep>
   <time name="total">    9.34    9.45</time>
   <energy>
    <i name="e_fr_energy">   -108.16914238 </i>
    <i name="e_wo_entrp">   -108.16507542 </i>
    <i name="e_0_energy">   -108.16710890 </i>
   </energy>
  </scstep>
  <scstep>
   <time name="total">    9.59    9.60</time>
   <energy>
    <i name="e_fr_energy">   -108.34671612 </i>
    <i name="e_wo_entrp">   -108.34140223 </i>
    <i name="e_0_energy">   -108.34405918 </i>
   </energy>
  </scstep>
  <scstep>
   <time name="total">    9.22    9.22</time>
   <energy>
    <i name="e_fr_energy">   -108.14721711 </i>
    <i name="e_wo_entrp">   -108.14279536 </i>
    <i name="e_0_energy">   -108.14500623 </i>
   </energy>
  </scstep>
  <scstep>
   <time name="total">    9.71    9.81</time>
   <energy>
    <i name="e_fr_energy">   -108.03983155 </i>
    <i name="e_wo_entrp">   -108.03605007 </i>
    <i name="e_0_energy">   -108.03794081 </i>
   </energy>
  </scstep>
  <scstep>
   <time name="total">    9.46    9.46</time>
   <energy>
    <i name="e_fr_energy">   -108.04004882 </i>
    <i name="e_wo_entrp">   -108.03562483 </i>
    <i name="e_0_energy">   -108.03783682 </i>
   </energy>
  </scstep>
  <scstep>
   <time name="total">    9.55    9.55</time>
   <energy>
    <i name="e_fr_energy">   -108.05561068 </i>
    <i name="e_wo_entrp">   -108.05131096 </i>
    <i name="e_0_energy">   -108.05346082 </i>
   </energy>
  </scstep>
  <scstep>
   <time name="total">    9.72    9.74</time>
   <energy>
    <i name="e_fr_energy">   -108.06743280 </i>
    <i name="e_wo_entrp">   -108.06315458 </i>
    <i name="e_0_energy">   -108.06529369 </i>
   </energy>
  </scstep>
  <scstep>
   <time name="total">    9.72    9.80</time>
   <energy>
    <i name="e_fr_energy">   -108.07629301 </i>
    <i name="e_wo_entrp">   -108.07199859 </i>
    <i name="e_0_energy">   -108.07414580 </i>
   </energy>
  </scstep>
  <scstep>
   <time name="total">    9.69    9.69</time>
   <energy>
    <i name="e_fr_energy">   -108.07745291 </i>
    <i name="e_wo_entrp">   -108.07314689 </i>
    <i name="e_0_energy">   -108.07529990 </i>
   </energy>
  </scstep>
  <scstep>
   <time name="total">   11.13   11.44</time>
   <energy>
    <i name="e_fr_energy">   -116.83630325 </i>
    <i name="e_wo_entrp">   -116.83447158 </i>
    <i name="e_0_energy">   -116.83538742 </i>
   </energy>
  </scstep>
  <scstep>
   <time name="total">    9.69    9.71</time>
   <energy>
    <i name="e_fr_energy">   -110.67538562 </i>
    <i name="e_wo_entrp">   -110.67355395 </i>
    <i name="e_0_energy">   -110.67446978 </i>
   </energy>
  </scstep>
  <scstep>
   <time name="total">    9.79    9.81</time>
   <energy>
    <i name="e_fr_energy">   -110.92698846 </i>
    <i name="e_wo_entrp">   -110.93075101 </i>
    <i name="e_0_energy">   -110.92886973 </i>
   </energy>
  </scstep>
  <scstep>
   <time name="total">    9.26    9.26</time>
   <energy>
    <i name="e_fr_energy">   -110.44874643 </i>
    <i name="e_wo_entrp">   -110.44852961 </i>
    <i name="e_0_energy">   -110.44863802 </i>
   </energy>
  </scstep>
  <scstep>
   <time name="total">    9.54    9.54</time>
   <energy>
    <i name="e_fr_energy">   -110.27569725 </i>
    <i name="e_wo_entrp">   -110.27540398 </i>
    <i name="e_0_energy">   -110.27555061 </i>
   </energy>
  </scstep>
  <scstep>
   <time name="total">    9.54    9.57</time>
   <energy>
    <i name="e_fr_energy">   -110.21465780 </i>
    <i name="e_wo_entrp">   -110.21456066 </i>
    <i name="e_0_energy">   -110.21460923 </i>
   </energy>
  </scstep>
  <scstep>
   <time name="total">    9.65    9.65</time>
   <energy>
    <i name="e_fr_energy">   -110.21382030 </i>
    <i name="e_wo_entrp">   -110.21396875 </i>
    <i name="e_0_energy">   -110.21389453 </i>
   </energy>
  </scstep>
  <scstep>
   <time name="total">    9.69    9.69</time>
   <energy>
    <i name="e_fr_energy">   -110.21402339 </i>
    <i name="e_wo_entrp">   -110.21420390 </i>
    <i name="e_0_energy">   -110.21411364 </i>
   </energy>
  </scstep>
  <scstep>
   <time name="total">   10.93   10.93</time>
   <energy>
    <i name="e_fr_energy">   -112.66563526 </i>
    <i name="e_wo_entrp">   -112.66847750 </i>
    <i name="e_0_energy">   -112.66705638 </i>
   </energy>
  </scstep>
  <scstep>
   <time name="total">    9.56    9.59</time>
   <energy>
    <i name="e_fr_energy">   -107.60876735 </i>
    <i name="e_wo_entrp">   -107.61160959 </i>
    <i name="e_0_energy">   -107.61018847 </i>
   </energy>
  </scstep>
  <scstep>
   <time name="total">    9.50    9.50</time>
   <energy>
    <i name="e_fr_energy">   -107.77532095 </i>
    <i name="e_wo_entrp">   -107.77661236 </i>
    <i name="e_0_energy">   -107.77596665 </i>
   </energy>
  </scstep>
  <scstep>
   <time name="total">    9.24    9.24</time>
   <energy>
    <i name="e_fr_energy">   -107.56333344 </i>
    <i name="e_wo_entrp">   -107.56587966 </i>
    <i name="e_0_energy">   -107.56460655 </i>
   </energy>
  </scstep>
  <scstep>
   <time name="total">    9.70    9.80</time>
   <energy>
    <i name="e_fr_energy">   -107.40082777 </i>
    <i name="e_wo_entrp">   -107.40345295 </i>
    <i name="e_0_energy">   -107.40214036 </i>
   </energy>
  </scstep>
  <scstep>
   <time name="total">    9.44    9.45</time>
   <energy>
    <i name="e_fr_energy">   -107.41126871 </i>
    <i name="e_wo_entrp">   -107.41356524 </i>
    <i name="e_0_energy">   -107.41241697 </i>
   </energy>
  </scstep>
  <scstep>
   <time name="total">    9.47    9.47</time>
   <energy>
    <i name="e_fr_energy">   -107.42120773 </i>
    <i name="e_wo_entrp">   -107.42354415 </i>
    <i name="e_0_energy">   -107.42237594 </i>
   </energy>
  </scstep>
  <scstep>
   <time name="total">    9.70    9.70</time>
   <energy>
    <i name="e_fr_energy">   -107.43090428 </i>
    <i name="e_wo_entrp">   -107.43332074 </i>
    <i name="e_0_energy">   -107.43211251 </i>
   </energy>
  </scstep>
  <scstep>
   <time name="total">    9.76    9.78</time>
   <energy>
    <i name="e_fr_energy">   -107.43827624 </i>
    <i name="e_wo_entrp">   -107.44063727 </i>
    <i name="e_0_energy">   -107.43945676 </i>
   </energy>
  </scstep>
  <scstep>
   <time name="total">    9.66    9.66</time>
   <energy>
    <i name="e_fr_energy">   -107.43750097 </i>
    <i name="e_wo_entrp">   -107.43985664 </i>
    <i name="e_0_energy">   -107.43867881 </i>
   </energy>
  </scstep>
  <scstep>
   <time name="total">   11.04   11.04</time>
   <energy>
    <i name="e_fr_energy">   -111.33151990 </i>
    <i name="e_wo_entrp">   -111.32920217 </i>
    <i name="e_0_energy">   -111.33036103 </i>
   </energy>
  </scstep>
  <scstep>
   <time name="total">    9.28    9.28</time>
   <energy>
    <i name="e_fr_energy">   -108.19948699 </i>
    <i name="e_wo_entrp">   -108.19716926 </i>
    <i name="e_0_energy">   -108.19832812 </i>
   </energy>
  </scstep>
  <scstep>
   <time name="total">    9.52    9.63</time>
   <energy>
    <i name="e_fr_energy">   -108.36812884 </i>
    <i name="e_wo_entrp">   -108.36696916 </i>
    <i name="e_0_energy">   -108.36754900 </i>
   </energy>
  </scstep>
  <scstep>
   <time name="total">    9.87    9.90</time>
   <energy>
    <i name="e_fr_energy">   -108.18219682 </i>
    <i name="e_wo_entrp">   -108.18025911 </i>
    <i name="e_0_energy">   -108.18122796 </i>
   </energy>
  </scstep>
  <scstep>
   <time name="total">    9.68    9.68</time>
   <energy>
    <i name="e_fr_energy">   -108.07223906 </i>
    <i name="e_wo_entrp">   -108.07034793 </i>
    <i name="e_0_energy">   -108.07129349 </i>
   </energy>
  </scstep>
  <scstep>
   <time name="total">    9.43    9.54</time>
   <energy>
    <i name="e_fr_energy">   -108.08097125 </i>
    <i name="e_wo_entrp">   -108.07908449 </i>
    <i name="e_0_energy">   -108.08002787 </i>
   </energy>
  </scstep>
  <scstep>
   <time name="total">    9.54    9.54</time>
   <energy>
    <i name="e_fr_energy">   -108.09301710 </i>
    <i name="e_wo_entrp">   -108.09115659 </i>
    <i name="e_0_energy">   -108.09208684 </i>
   </energy>
  </scstep>
  <scstep>
   <time name="total">    9.77    9.77</time>
   <energy>
    <i name="e_fr_energy">   -108.10543043 </i>
    <i name="e_wo_entrp">   -108.10361851 </i>
    <i name="e_0_energy">   -108.10452447 </i>
   </energy>
  </scstep>
  <scstep>
   <time name="total">    9.57    9.63</time>
   <energy>
    <i name="e_fr_energy">   -108.11238016 </i>
    <i name="e_wo_entrp">   -108.11054528 </i>
    <i name="e_0_energy">   -108.11146272 </i>
   </energy>
  </scstep>
  <scstep>
   <time name="total">    9.78    9.78</time>
   <energy>
    <i name="e_fr_energy">   -108.11282190 </i>
    <i name="e_wo_entrp">   -108.11097737 </i>
    <i name="e_0_energy">   -108.11189964 </i>
   </energy>
  </scstep>
  <scstep>
   <time name="total">   11.02   11.02</time>
   <energy>
    <i name="e_fr_energy">   -116.89095573 </i>
    <i name="e_wo_entrp">   -116.89040049 </i>
    <i name="e_0_energy">   -116.89067811 </i>
   </energy>
  </scstep>
  <scstep>
   <time name="total">    9.61    9.62</time>
   <energy>
    <i name="e_fr_energy">   -110.75602103 </i>
    <i name="e_wo_entrp">   -110.75546578 </i>
    <i name="e_0_energy">   -110.75574340 </i>
   </energy>
  </scstep>
  <scstep>
   <time name="total">    9.61    9.64</time>
   <energy>
    <i name="e_fr_energy">   -111.05012916 </i>
    <i name="e_wo_entrp">   -111.04834006 </i>
    <i name="e_0_energy">   -111.04923461 </i>
   </energy>
  </scstep>
  <scstep>
   <time name="total">    9.24    9.24</time>
   <energy>
    <i name="e_fr_energy">   -110.51412874 </i>
    <i name="e_wo_entrp">   -110.51353355 </i>
    <i name="e_0_energy">   -110.51383114 </i>
   </energy>
  </scstep>
  <scstep>
   <time name="total">    9.57    9.57</time>
   <energy>
    <i name="e_fr_energy">   -110.34341552 </i>
    <i name="e_wo_entrp">   -110.34195744 </i>
    <i name="e_0_energy">   -110.34268648 </i>
   </energy>
  </scstep>
  <scstep>
   <time name="total">    9.49    9.50</time>
   <energy>
    <i name="e_fr_energy">   -110.28875664 </i>
    <i name="e_wo_entrp">   -110.28802025 </i>
    <i name="e_0_energy">   -110.28838844 </i>
   </energy>
  </scstep>
  <scstep>
[...]
       <r>    0.8058    0.0000 </r>
       <r>    0.8620    0.0000 </r>
       <r>    1.0449    0.0000 </r>
       <r>    1.1415    0.0000 </r>
       <r>    1.2010    0.0000 </r>
       <r>    1.2687    0.0000 </r>
       <r>    1.3346    0.0000 </r>
       <r>    1.3715    0.0000 </r>
       <r>    1.3972    0.0000 </r>
       <r>    1.4241    0.0000 </r>
       <r>    1.4810    0.0000 </r>
       <r>    1.5216    0.0000 </r>
       <r>    1.6588    0.0000 </r>
       <r>    1.7108    0.0000 </r>
       <r>    1.7403    0.0000 </r>
       <r>    1.7692    0.0000 </r>
       <r>    1.7920    0.0000 </r>
       <r>    1.8201    0.0000 </r>
       <r>    1.8654    0.0000 </r>
       <r>    1.9036    0.0000 </r>
       <r>    1.9493    0.0000 </r>
       <r>    1.9871    0.0000 </r>
       <r>    2.0043    0.0000 </r>
       <r>    2.0593    0.0000 </r>
       <r>    2.1137    0.0000 </r>
       <r>    2.1345    0.0000 </r>
       <r>    2.1689    0.0000 </r>
       <r>    2.2443    0.0000 </r>
       <r>    2.2785    0.0000 </r>
       <r>    2.2934    0.0000 </r>
      </set>
     </set>
    </set>
   </array>
  </eigenvalues>
  <separator name="orbital magnetization" >
   <v name="MAGDIPOLOUT">      0.00000000      0.00000000      0.00000000</v>
  </separator>
  <dos>
   <i name="efermi">      0.31523984 </i>
   <total>
    <array>
     <dimension dim="1">gridpoints</dimension>
     <dimension dim="2">spin</dimension>
     <field>energy</field>
     <field>total</field>
     <field>integrated</field>
     <set>
      <set comment="spin 1">
       <r>   -13.2271     0.0000     0.0000 </r>
       <r>   -13.1726     0.0000     0.0000 </r>
       <r>   -13.1181     0.0000     0.0000 </r>
       <r>   -13.0637     0.0000     0.0000 </r>
       <r>   -13.0092     0.0000     0.0000 </r>
       <r>   -12.9547     0.0000     0.0000 </r>
       <r>   -12.9003     0.0000     0.0000 </r>
       <r>   -12.8458     0.0000     0.0000 </r>
       <r>   -12.7913     0.0000     0.0000 </r>
       <r>   -12.7369     0.0000     0.0000 </r>
       <r>   -12.6824     0.0000     0.0000 </r>
       <r>   -12.6279     0.0002     0.0000 </r>
       <r>   -12.5734     0.0535     0.0029 </r>
       <r>   -12.5190     1.4537     0.0821 </r>
       <r>   -12.4645     5.6554     0.3901 </r>
       <r>   -12.4100     9.0109     0.8810 </r>
       <r>   -12.3556    10.7442     1.4662 </r>
       <r>   -12.3011     7.1005     1.8529 </r>
       <r>   -12.2466     7.2721     2.2490 </r>
       <r>   -12.1922    12.2673     2.9172 </r>
       <r>   -12.1377    10.7808     3.5044 </r>
       <r>   -12.0832     7.3988     3.9074 </r>
       <r>   -12.0288     5.2751     4.1947 </r>
       <r>   -11.9743    13.3926     4.9242 </r>
       <r>   -11.9198    16.6180     5.8294 </r>
       <r>   -11.8654    10.4672     6.3995 </r>
       <r>   -11.8109     2.7880     6.5514 </r>
       <r>   -11.7564     7.9172     6.9826 </r>
       <r>   -11.7020    13.2070     7.7019 </r>
       <r>   -11.6475    12.9340     8.4064 </r>
       <r>   -11.5930    19.1536     9.4497 </r>
       <r>   -11.5386    24.1966    10.7676 </r>
       <r>   -11.4841    25.5280    12.1581 </r>
       <r>   -11.4296    23.8770    13.4587 </r>
       <r>   -11.3751    21.4538    14.6272 </r>
       <r>   -11.3207    18.6858    15.6450 </r>
       <r>   -11.2662    32.5872    17.4200 </r>
       <r>   -11.2117    34.6439    19.3069 </r>
       <r>   -11.1573    25.1462    20.6766 </r>
       <r>   -11.1028    24.0570    21.9870 </r>
       <r>   -11.0483    25.0931    23.3537 </r>
       <r>   -10.9939    26.8515    24.8163 </r>
       <r>   -10.9394    27.7857    26.3297 </r>
       <r>   -10.8849    30.1661    27.9728 </r>
       <r>   -10.8305    40.1575    30.1601 </r>
       <r>   -10.7760    38.2447    32.2432 </r>
       <r>   -10.7215    41.4395    34.5004 </r>
       <r>   -10.6671    47.0801    37.0648 </r>
       <r>   -10.6126    56.3631    40.1348 </r>
       <r>   -10.5581    57.5896    43.2716 </r>
       <r>   -10.5037    48.4300    45.9095 </r>
       <r>   -10.4492    32.8538    47.6989 </r>
       <r>   -10.3947    28.6476    49.2593 </r>
       <r>   -10.3402    28.9909    50.8384 </r>
       <r>   -10.2858    36.2210    52.8113 </r>
       <r>   -10.2313    31.9809    54.5532 </r>
       <r>   -10.1768    22.1566    55.7601 </r>
       <r>   -10.1224    35.0275    57.6680 </r>
       <r>   -10.0679    40.8817    59.8947 </r>
       <r>   -10.0134    27.3592    61.3849 </r>
       <r>    -9.9590    10.1376    61.9371 </r>
       <r>    -9.9045     1.1345    61.9989 </r>
       <r>    -9.8500     0.0203    62.0000 </r>
       <r>    -9.7956     0.0000    62.0000 </r>
       <r>    -9.7411     0.0000    62.0000 </r>
       <r>    -9.6866     0.0000    62.0000 </r>
       <r>    -9.6322     0.0000    62.0000 </r>
       <r>    -9.5777     0.0000    62.0000 </r>
       <r>    -9.5232     0.0000    62.0000 </r>
       <r>    -9.4688     0.0000    62.0000 </r>
       <r>    -9.4143     0.0000    62.0000 </r>
       <r>    -9.3598     0.0000    62.0000 </r>
       <r>    -9.3054     0.0000    62.0000 </r>
       <r>    -9.2509     0.0000    62.0000 </r>
       <r>    -9.1964     0.0000    62.0000 </r>
       <r>    -9.1419     0.0000    62.0000 </r>
       <r>    -9.0875     0.0000    62.0000 </r>
       <r>    -9.0330     0.0000    62.0000 </r>
       <r>    -8.9785     0.0000    62.0000 </r>
       <r>    -8.9241     0.0000    62.0000 </r>
       <r>    -8.8696     0.0000    62.0000 </r>
       <r>    -8.8151     0.0000    62.0000 </r>
       <r>    -8.7607     0.0000    62.0000 </r>
       <r>    -8.7062     0.0000    62.0000 </r>
       <r>    -8.6517     0.0000    62.0000 </r>
       <r>    -8.5973     0.0000    62.0000 </r>
       <r>    -8.5428     0.0000    62.0000 </r>
       <r>    -8.4883     0.0000    62.0000 </r>
       <r>    -8.4339     0.0000    62.0000 </r>
       <r>    -8.3794     0.0000    62.0000 </r>
       <r>    -8.3249     0.0000    62.0000 </r>
       <r>    -8.2705     0.0000    62.0000 </r>
       <r>    -8.2160     0.0000    62.0000 </r>
       <r>    -8.1615     0.0000    62.0000 </r>
       <r>    -8.1071     0.0000    62.0000 </r>
       <r>    -8.0526     0.0000    62.0000 </r>
       <r>    -7.9981     0.0000    62.0000 </r>
       <r>    -7.9436     0.0000    62.0000 </r>
       <r>    -7.8892     0.0000    62.0000 </r>
       <r>    -7.8347     0.0000    62.0000 </r>
       <r>    -7.7802     0.0000    62.0000 </r>
       <r>    -7.7258     0.0000    62.0000 </r>
       <r>    -7.6713     0.0000    62.0000 </r>
       <r>    -7.6168     0.0000    62.0000 </r>
       <r>    -7.5624     0.0000    62.0000 </r>
       <r>    -7.5079     0.0000    62.0000 </r>
       <r>    -7.4534     0.0000    62.0000 </r>
       <r>    -7.3990     0.0000    62.0000 </r>
       <r>    -7.3445     0.0000    62.0000 </r>
       <r>    -7.2900     0.0000    62.0000 </r>
       <r>    -7.2356     0.0000    62.0000 </r>
       <r>    -7.1811     0.0000    62.0000 </r>
       <r>    -7.1266     0.0000    62.0000 </r>
       <r>    -7.0722     0.0000    62.0000 </r>
       <r>    -7.0177     0.0000    62.0000 </r>
       <r>    -6.9632     0.0000    62.0000 </r>
       <r>    -6.9087     0.0000    62.0000 </r>
       <r>    -6.8543     0.0000    62.0000 </r>
       <r>    -6.7998     0.0000    62.0000 </r>
       <r>    -6.7453     0.0000    62.0000 </r>
       <r>    -6.6909     0.0000    62.0000 </r>
       <r>    -6.6364     0.0000    62.0000 </r>
       <r>    -6.5819     0.0000    62.0000 </r>
       <r>    -6.5275     0.0000    62.0000 </r>
       <r>    -6.4730     0.0000    62.0000 </r>
       <r>    -6.4185     0.0000    62.0000 </r>
       <r>    -6.3641     0.0000    62.0000 </r>
       <r>    -6.3096     0.0000    62.0000 </r>
       <r>    -6.2551     0.0000    62.0000 </r>
       <r>    -6.2007     0.0000    62.0000 </r>
       <r>    -6.1462     0.0000    62.0000 </r>
       <r>    -6.0917     0.0000    62.0000 </r>
       <r>    -6.0373     0.0000    62.0000 </r>
       <r>    -5.9828     0.0000    62.0000 </r>
       <r>    -5.9283     0.0000    62.0000 </r>
       <r>    -5.8739     0.0000    62.0000 </r>
       <r>    -5.8194     0.0000    62.0000 </r>
       <r>    -5.7649     0.0000    62.0000 </r>
       <r>    -5.7104     0.0000    62.0000 </r>
       <r>    -5.6560     0.0000    62.0000 </r>
       <r>    -5.6015     0.0000    62.0000 </r>
       <r>    -5.5470     0.0006    62.0000 </r>
       <r>    -5.4926     0.1046    62.0057 </r>
       <r>    -5.4381     2.0198    62.1157 </r>
       <r>    -5.3836     5.1516    62.3963 </r>
       <r>    -5.3292     2.9364    62.5563 </r>
       <r>    -5.2747     8.7450    63.0326 </r>
       <r>    -5.2202    18.3890    64.0342 </r>
       <r>    -5.1658    16.9046    64.9550 </r>
       <r>    -5.1113    18.2033    65.9465 </r>
       <r>    -5.0568    12.1904    66.6105 </r>
       <r>    -5.0024    14.0609    67.3764 </r>
       <r>    -4.9479    17.9471    68.3539 </r>
       <r>    -4.8934    15.8471    69.2171 </r>
       <r>    -4.8390    18.8365    70.2431 </r>
       <r>    -4.7845    20.3214    71.3499 </r>
       <r>    -4.7300    26.0166    72.7670 </r>
       <r>    -4.6756    23.8638    74.0668 </r>
       <r>    -4.6211    22.8636    75.3122 </r>
       <r>    -4.5666    26.0451    76.7308 </r>
       <r>    -4.5121    34.9092    78.6322 </r>
       <r>    -4.4577    43.3749    80.9948 </r>
       <r>    -4.4032    52.0845    83.8317 </r>
       <r>    -4.3487    54.6065    86.8061 </r>
       <r>    -4.2943    63.5428    90.2671 </r>
       <r>    -4.2398    59.4632    93.5060 </r>
       <r>    -4.1853    50.2369    96.2423 </r>
       <r>    -4.1309    37.9271    98.3081 </r>
       <r>    -4.0764    37.4747   100.3493 </r>
       <r>    -4.0219    41.0679   102.5862 </r>
       <r>    -3.9675    39.6615   104.7465 </r>
       <r>    -3.9130    35.4637   106.6781 </r>
       <r>    -3.8585    36.4762   108.6649 </r>
       <r>    -3.8041    24.1876   109.9824 </r>
       <r>    -3.7496    31.2598   111.6850 </r>
       <r>    -3.6951    33.1785   113.4922 </r>
       <r>    -3.6407    28.0079   115.0178 </r>
       <r>    -3.5862    29.4082   116.6196 </r>
       <r>    -3.5317    32.8913   118.4111 </r>
       <r>    -3.4773    39.3864   120.5564 </r>
       <r>    -3.4228    48.4478   123.1953 </r>
       <r>    -3.3683    50.8681   125.9660 </r>
       <r>    -3.3138    36.8498   127.9731 </r>
       <r>    -3.2594    28.7621   129.5397 </r>
       <r>    -3.2049    34.1323   131.3989 </r>
       <r>    -3.1504    35.4584   133.3302 </r>
       <r>    -3.0960    45.0733   135.7853 </r>
       <r>    -3.0415    48.9430   138.4511 </r>
       <r>    -2.9870    39.3830   140.5962 </r>
       <r>    -2.9326    34.2322   142.4608 </r>
       <r>    -2.8781    31.5753   144.1807 </r>
       <r>    -2.8236    45.7423   146.6722 </r>
       <r>    -2.7692    51.8431   149.4960 </r>
       <r>    -2.7147    49.8115   152.2091 </r>
       <r>    -2.6602    54.3048   155.1670 </r>
       <r>    -2.6058    54.5914   158.1405 </r>
       <r>    -2.5513    53.6656   161.0636 </r>
       <r>    -2.4968    51.3185   163.8588 </r>
       <r>    -2.4424    46.5381   166.3936 </r>
       <r>    -2.3879    43.5982   168.7684 </r>
       <r>    -2.3334    47.5841   171.3602 </r>
       <r>    -2.2789    48.3858   173.9957 </r>
       <r>    -2.2245    38.9476   176.1171 </r>
       <r>    -2.1700    37.6955   178.1703 </r>
       <r>    -2.1155    45.2994   180.6377 </r>
       <r>    -2.0611    45.5334   183.1178 </r>
       <r>    -2.0066    49.7249   185.8262 </r>
       <r>    -1.9521    42.9096   188.1634 </r>
       <r>    -1.8977    39.8123   190.3319 </r>
       <r>    -1.8432    46.0768   192.8417 </r>
       <r>    -1.7887    47.4053   195.4237 </r>
       <r>    -1.7343    51.9536   198.2536 </r>
       <r>    -1.6798    51.3232   201.0490 </r>
       <r>    -1.6253    44.5624   203.4763 </r>
       <r>    -1.5709    45.6785   205.9643 </r>
       <r>    -1.5164    58.5334   209.1525 </r>
       <r>    -1.4619    63.2071   212.5953 </r>
       <r>    -1.4075    69.7593   216.3950 </r>
       <r>    -1.3530    63.7468   219.8671 </r>
       <r>    -1.2985    45.1103   222.3242 </r>
       <r>    -1.2441    49.3694   225.0133 </r>
       <r>    -1.1896    48.2519   227.6415 </r>
       <r>    -1.1351    47.8446   230.2475 </r>
       <r>    -1.0806    56.0117   233.2983 </r>
       <r>    -1.0262    58.7801   236.5000 </r>
       <r>    -0.9717    61.2882   239.8383 </r>
       <r>    -0.9172    62.1359   243.2227 </r>
       <r>    -0.8628    54.4564   246.1888 </r>
       <r>    -0.8083    57.1120   249.2996 </r>
       <r>    -0.7538    59.6871   252.5507 </r>
       <r>    -0.6994    52.3670   255.4030 </r>
       <r>    -0.6449    53.5127   258.3178 </r>
       <r>    -0.5904    52.0753   261.1542 </r>
       <r>    -0.5360    39.6602   263.3144 </r>
       <r>    -0.4815    36.2215   265.2873 </r>
       <r>    -0.4270    36.3266   267.2660 </r>
       <r>    -0.3726    42.0740   269.5577 </r>
       <r>    -0.3181    40.7782   271.7788 </r>
       <r>    -0.2636    30.3879   273.4340 </r>
       <r>    -0.2092    16.1907   274.3159 </r>
       <r>    -0.1547    21.8864   275.5080 </r>
       <r>    -0.1002    22.6562   276.7420 </r>
       <r>    -0.0458    29.8325   278.3669 </r>
       <r>     0.0087    28.5719   279.9232 </r>
       <r>     0.0632     9.5967   280.4459 </r>
       <r>     0.1177     1.0972   280.5057 </r>
       <r>     0.1721     3.0157   280.6699 </r>
       <r>     0.2266    10.4484   281.2390 </r>
       <r>     0.2811     8.9779   281.7281 </r>
       <r>     0.3355     8.0001   282.1638 </r>
       <r>     0.3900     9.8747   282.7017 </r>
       <r>     0.4445    18.0462   283.6846 </r>
       <r>     0.4989    21.6203   284.8622 </r>
       <r>     0.5534    21.7166   286.0451 </r>
       <r>     0.6079    18.6268   287.0597 </r>
       <r>     0.6623    24.9688   288.4197 </r>
       <r>     0.7168    28.5151   289.9728 </r>
       <r>     0.7713    30.6503   291.6423 </r>
       <r>     0.8257    27.3377   293.1313 </r>
       <r>     0.8802    28.0335   294.6583 </r>
       <r>     0.9347    19.3835   295.7141 </r>
       <r>     0.9891    15.7240   296.5705 </r>
       <r>     1.0436    25.8188   297.9768 </r>
       <r>     1.0981    26.7692   299.4349 </r>
       <r>     1.1525    30.1544   301.0773 </r>
       <r>     1.2070    28.3977   302.6241 </r>
       <r>     1.2615    23.4394   303.9008 </r>
       <r>     1.3160    31.8831   305.6374 </r>
       <r>     1.3704    48.7194   308.2911 </r>
       <r>     1.4249    52.9284   311.1740 </r>
       <r>     1.4794    35.0916   313.0854 </r>
       <r>     1.5338    26.8646   314.5487 </r>
       <r>     1.5883    17.0655   315.4782 </r>
       <r>     1.6428    20.5929   316.5998 </r>
       <r>     1.6972    38.3667   318.6896 </r>
       <r>     1.7517    52.5680   321.5529 </r>
       <r>     1.8062    60.1887   324.8313 </r>
       <r>     1.8606    50.3295   327.5726 </r>
       <r>     1.9151    46.8765   330.1259 </r>
       <r>     1.9696    47.0193   332.6870 </r>
       <r>     2.0240    54.1940   335.6388 </r>
       <r>     2.0785    57.3376   338.7619 </r>
       <r>     2.1330    54.8215   341.7479 </r>
       <r>     2.1874    55.0921   344.7487 </r>
       <r>     2.2419    51.4719   347.5523 </r>
       <r>     2.2964    47.0555   350.1153 </r>
       <r>     2.3509    25.4031   351.4990 </r>
       <r>     2.4053     7.9205   351.9304 </r>
       <r>     2.4598     1.2402   351.9979 </r>
       <r>     2.5143     0.0376   352.0000 </r>
       <r>     2.5687     0.0001   352.0000 </r>
       <r>     2.6232     0.0000   352.0000 </r>
       <r>     2.6777     0.0000   352.0000 </r>
       <r>     2.7321     0.0000   352.0000 </r>
       <r>     2.7866     0.0000   352.0000 </r>
       <r>     2.8411     0.0000   352.0000 </r>
       <r>     2.8955     0.0000   352.0000 </r>
       <r>     2.9500     0.0000   352.0000 </r>
       <r>     3.0045     0.0000   352.0000 </r>
       <r>     3.0589     0.0000   352.0000 </r>
       <r>     3.1134     0.0000   352.0000 </r>
      </set>
     </set>
    </array>
   </total>
  </dos>
 </calculation>
 <structure name="finalpos" >
  <crystal>
   <varray name="basis" >
    <v>      13.80799961       0.00000000       0.00000000 </v>
    <v>       0.00000000      12.73600006       0.00000000 </v>
    <v>       0.00000000       0.00000000      16.00000000 </v>
   </varray>
   <i name="volume">   2813.73894219 </i>
   <varray name="rec_basis" >
    <v>       0.07242179       0.00000000       0.00000000 </v>
    <v>       0.00000000       0.07851759       0.00000000 </v>
    <v>       0.00000000       0.00000000       0.06250000 </v>
   </varray>
  </crystal>
  <varray name="positions" >
   <v>       0.62499998       0.05253229       0.63219482 </v>
   <v>       0.35902693       0.04988312       0.62533017 </v>
   <v>       0.89097303       0.04988313       0.62533016 </v>
   <v>       0.12500000       0.55102005       0.62959639 </v>
   <v>       0.62499999       0.55023056       0.63207387 </v>
   <v>       0.37203353       0.55048705       0.63028247 </v>
   <v>       0.87796647       0.55048702       0.63028249 </v>
   <v>       0.12500001       0.37468891       0.40554459 </v>
   <v>       0.62500000       0.37615435       0.41035569 </v>
   <v>       0.37590470       0.37519945       0.40887846 </v>
   <v>       0.87409530       0.37519945       0.40887846 </v>
   <v>       0.12500002       0.86896629       0.39912073 </v>
   <v>       0.62500000       0.87617969       0.41091999 </v>
   <v>       0.37496618       0.87646923       0.40979215 </v>
   <v>       0.87503382       0.87646923       0.40979216 </v>
   <v>       0.99781858       0.12959665       0.36446876 </v>
   <v>       0.50139039       0.12649428       0.37229914 </v>
   <v>       0.25218144       0.12959659       0.36446874 </v>
   <v>       0.74860961       0.12649429       0.37229916 </v>
   <v>       0.99883410       0.62650424       0.37071592 </v>
   <v>       0.49980095       0.63126807       0.37488980 </v>
   <v>       0.25116591       0.62650423       0.37071593 </v>
   <v>       0.75019906       0.63126805       0.37488980 </v>
   <v>       0.00532400       0.30014658       0.59165374 </v>
   <v>       0.49717928       0.30392116       0.59322149 </v>
   <v>       0.24467601       0.30014659       0.59165374 </v>
   <v>       0.75282070       0.30392116       0.59322150 </v>
   <v>       0.00782187       0.80983892       0.59036708 </v>
   <v>       0.49737638       0.80635992       0.59529354 </v>
   <v>       0.24217811       0.80983896       0.59036706 </v>
   <v>       0.75262361       0.80635992       0.59529355 </v>
   <v>       0.12500003       0.17009351       0.48819960 </v>
   <v>       0.62500000       0.18161874       0.49629288 </v>
   <v>       0.37330376       0.17960010       0.49205145 </v>
   <v>       0.87669623       0.17960009       0.49205145 </v>
   <v>       0.12500001       0.67705487       0.49172526 </v>
   <v>       0.62500000       0.68223076       0.49811356 </v>
   <v>       0.37174260       0.68214493       0.49649107 </v>
   <v>       0.87825740       0.68214493       0.49649107 </v>
   <v>       0.01291220       0.00199580       0.49879126 </v>
   <v>       0.49930511       0.00112825       0.50906440 </v>
   <v>       0.23708783       0.00199580       0.49879122 </v>
   <v>       0.75069486       0.00112827       0.50906440 </v>
   <v>       0.00296118       0.49691377       0.50598297 </v>
   <v>       0.49906132       0.50048899       0.50879053 </v>
   <v>       0.24703883       0.49691379       0.50598296 </v>
   <v>       0.75093867       0.50048898       0.50879054 </v>
  </varray>
 </structure>
</modeling>
