<?xml version="1.0" encoding="ISO-8859-1"?>
<modeling>
 <generator>
  <i name="program" type="string">vasp </i>
  <i name="version" type="string">5.3.5  </i>
  <i name="subversion" type="string">31Mar14 (build Mar 18 2017 11:34:20) complex                          parallel </i>
  <i name="platform" type="string">LinuxIFC </i>
  <i name="date" type="string">2018 02 12 </i>
  <i name="time" type="string">19:24:29 </i>
 </generator>
 <incar>
  <i type="string" name="SYSTEM"> MoTe2 Phonon calculation</i>
  <i type="string" name="PREC">accurate</i>
  <i type="string" name="ALGO"> Normal</i>
  <i type="logical" name="ADDGRID"> T  </i>
  <i type="int" name="NELMDL">    -5</i>
  <i type="int" name="IBRION">     8</i>
  <i name="EDIFF">      0.00000100</i>
  <i type="int" name="NSW">     1</i>
  <i type="int" name="ISIF">     2</i>
  <i type="int" name="ISYM">     0</i>
  <i name="ENCUT">    400.00000000</i>
  <i name="POTIM">      0.50000000</i>
  <i type="logical" name="LREAL"> F  </i>
  <i type="int" name="ISMEAR">     0</i>
  <i name="SIGMA">      0.05000000</i>
  <i type="int" name="NWRITE">     3</i>
  <i type="logical" name="LWAVE"> F  </i>
  <i type="logical" name="LCHARG"> F  </i>
 </incar>
 <kpoints>
  <generation param="Monkhorst-Pack">
   <v type="int" name="divisions">       4        4        1 </v>
   <v name="usershift">      0.00000000       0.00000000       0.00000000 </v>
   <v name="genvec1">      0.25000000       0.00000000       0.00000000 </v>
   <v name="genvec2">      0.00000000       0.25000000       0.00000000 </v>
   <v name="genvec3">      0.00000000       0.00000000       1.00000000 </v>
   <v name="shift">      0.50000000       0.50000000       0.00000000 </v>
  </generation>
  <varray name="kpointlist" >
   <v>       0.12500000       0.12500000       0.00000000 </v>
   <v>       0.37500000       0.12500000       0.00000000 </v>
   <v>      -0.37500000       0.12500000       0.00000000 </v>
   <v>      -0.12500000       0.12500000       0.00000000 </v>
   <v>       0.12500000       0.37500000       0.00000000 </v>
   <v>       0.37500000       0.37500000       0.00000000 </v>
   <v>      -0.37500000       0.37500000       0.00000000 </v>
   <v>      -0.12500000       0.37500000       0.00000000 </v>
  </varray>
  <varray name="weights" >
   <v>       0.12500000 </v>
   <v>       0.12500000 </v>
   <v>       0.12500000 </v>
   <v>       0.12500000 </v>
   <v>       0.12500000 </v>
   <v>       0.12500000 </v>
   <v>       0.12500000 </v>
   <v>       0.12500000 </v>
  </varray>
 </kpoints>
 <parameters>
  <separator name="general" >
   <i type="string" name="SYSTEM">MoTe2 Phonon calculation</i>
   <i type="logical" name="LCOMPAT"> F  </i>
  </separator>
  <separator name="electronic" >
   <i type="string" name="PREC">accura</i>
   <i name="ENMAX">    400.00000000</i>
   <i name="ENAUG">    368.79200000</i>
   <i name="EDIFF">      0.00000100</i>
   <i type="int" name="IALGO">    38</i>
   <i type="int" name="IWAVPR">    11</i>
   <i type="int" name="NBANDS">   176</i>
   <i name="NELECT">    270.00000000</i>
   <i type="int" name="TURBO">     0</i>
   <i type="int" name="IRESTART">     0</i>
   <i type="int" name="NREBOOT">     0</i>
   <i type="int" name="NMIN">     0</i>
   <i name="EREF">      0.00000000</i>
   <separator name="electronic smearing" >
    <i type="int" name="ISMEAR">     0</i>
    <i name="SIGMA">      0.05000000</i>
    <i name="KSPACING">      0.50000000</i>
    <i type="logical" name="KGAMMA"> T  </i>
   </separator>
   <separator name="electronic projectors" >
    <i type="logical" name="LREAL"> F  </i>
    <v name="ROPT">      0.00000000      0.00000000</v>
    <i type="int" name="LMAXPAW">  -100</i>
    <i type="int" name="LMAXMIX">     2</i>
    <i type="logical" name="NLSPLINE"> F  </i>
   </separator>
   <separator name="electronic startup" >
    <i type="int" name="ISTART">     0</i>
    <i type="int" name="ICHARG">     2</i>
    <i type="int" name="INIWAV">     1</i>
   </separator>
   <separator name="electronic spin" >
    <i type="int" name="ISPIN">     1</i>
    <i type="logical" name="LNONCOLLINEAR"> F  </i>
    <v name="MAGMOM">      1.00000000      1.00000000      1.00000000      1.00000000      1.00000000      1.00000000      1.00000000      1.00000000      1.00000000      1.00000000      1.00000000      1.00000000      1.00000000      1.00000000      1.00000000      1.00000000      1.00000000      1.00000000      1.00000000      1.00000000
      1.00000000      1.00000000      1.00000000      1.00000000      1.00000000      1.00000000      1.00000000      1.00000000      1.00000000      1.00000000      1.00000000      1.00000000      1.00000000      1.00000000      1.00000000      1.00000000      1.00000000      1.00000000      1.00000000      1.00000000
      1.00000000      1.00000000      1.00000000      1.00000000      1.00000000</v>
    <i name="NUPDOWN">     -1.00000000</i>
    <i type="logical" name="LSORBIT"> F  </i>
    <v name="SAXIS">      0.00000000      0.00000000      1.00000000</v>
    <i type="logical" name="LSPIRAL"> F  </i>
    <v name="QSPIRAL">      0.00000000      0.00000000      0.00000000</v>
    <i type="logical" name="LZEROZ"> F  </i>
   </separator>
   <separator name="electronic exchange-correlation" >
    <i type="logical" name="LASPH"> F  </i>
    <i type="logical" name="LMETAGGA"> F  </i>
   </separator>
   <separator name="electronic convergence" >
    <i type="int" name="NELM">    60</i>
    <i type="int" name="NELMDL">    -5</i>
    <i type="int" name="NELMIN">     2</i>
    <i name="ENINI">    400.00000000</i>
    <separator name="electronic convergence detail" >
     <i type="logical" name="LDIAG"> T  </i>
     <i type="logical" name="LSUBROT"> F  </i>
     <i name="WEIMIN">      0.00100000</i>
     <i name="EBREAK">      0.00000000</i>
     <i name="DEPER">      0.30000000</i>
     <i type="int" name="NRMM">     4</i>
     <i name="TIME">      0.40000000</i>
    </separator>
   </separator>
   <separator name="electronic mixer" >
    <i name="AMIX">      0.40000000</i>
    <i name="BMIX">      1.00000000</i>
    <i name="AMIN">      0.10000000</i>
    <i name="AMIX_MAG">      1.60000000</i>
    <i name="BMIX_MAG">      1.00000000</i>
    <separator name="electronic mixer details" >
     <i type="int" name="IMIX">     4</i>
     <i type="int" name="MAXMIX">   -45</i>
     <i name="WC">    100.00000000</i>
     <i type="int" name="INIMIX">     1</i>
     <i type="int" name="MIXPRE">     1</i>
     <i type="int" name="MREMOVE">     5</i>
    </separator>
   </separator>
   <separator name="electronic dipolcorrection" >
    <i type="logical" name="LDIPOL"> F  </i>
    <i type="logical" name="LMONO"> F  </i>
    <i type="int" name="IDIPOL">     0</i>
    <i name="EPSILON">      1.00000000</i>
    <v name="DIPOL">   -100.00000000   -100.00000000   -100.00000000</v>
    <i name="EFIELD">      0.00000000</i>
   </separator>
  </separator>
  <separator name="grids" >
   <i type="int" name="NGX">    90</i>
   <i type="int" name="NGY">    84</i>
   <i type="int" name="NGZ">   108</i>
   <i type="int" name="NGXF">   180</i>
   <i type="int" name="NGYF">   168</i>
   <i type="int" name="NGZF">   216</i>
   <i type="logical" name="ADDGRID"> T  </i>
  </separator>
  <separator name="ionic" >
   <i type="int" name="NSW">     1</i>
   <i type="int" name="IBRION">     8</i>
   <i type="int" name="ISIF">     2</i>
   <i name="PSTRESS">      0.00000000</i>
   <i name="EDIFFG">      0.00001000</i>
   <i type="int" name="NFREE">     0</i>
   <i name="POTIM">      0.50000000</i>
   <i name="SMASS">     -3.00000000</i>
   <i name="SCALEE">      1.00000000</i>
  </separator>
  <separator name="ionic md" >
   <i name="TEBEG">      0.00010000</i>
   <i name="TEEND">      0.00010000</i>
   <i type="int" name="NBLOCK">     1</i>
   <i type="int" name="KBLOCK">     1</i>
   <i type="int" name="NPACO">   256</i>
   <i name="APACO">     16.00000000</i>
  </separator>
  <separator name="symmetry" >
   <i type="int" name="ISYM">     0</i>
   <i name="SYMPREC">      0.00001000</i>
  </separator>
  <separator name="dos" >
   <i type="logical" name="LORBIT"> F  </i>
   <v name="RWIGS">     -1.00000000     -1.00000000</v>
   <i type="int" name="NEDOS">   301</i>
   <i name="EMIN">     10.00000000</i>
   <i name="EMAX">    -10.00000000</i>
   <i name="EFERMI">      0.00000000</i>
  </separator>
  <separator name="writing" >
   <i type="int" name="NWRITE">     3</i>
   <i type="logical" name="LWAVE"> F  </i>
   <i type="logical" name="LCHARG"> F  </i>
   <i type="logical" name="LPARD"> F  </i>
   <i type="logical" name="LVTOT"> F  </i>
   <i type="logical" name="LVHAR"> F  </i>
   <i type="logical" name="LELF"> F  </i>
   <i type="logical" name="LOPTICS"> F  </i>
   <v name="STM">      0.00000000      0.00000000      0.00000000      0.00000000      0.00000000      0.00000000      0.00000000</v>
  </separator>
  <separator name="performance" >
   <i type="int" name="NPAR">    16</i>
   <i type="int" name="NSIM">     4</i>
   <i type="int" name="NBLK">    -1</i>
   <i type="logical" name="LPLANE"> T  </i>
   <i type="logical" name="LSCALAPACK"> T  </i>
   <i type="logical" name="LSCAAWARE"> F  </i>
   <i type="logical" name="LSCALU"> F  </i>
   <i type="logical" name="LASYNC"> F  </i>
   <i type="logical" name="LORBITALREAL"> F  </i>
  </separator>
  <separator name="miscellaneous" >
   <i type="int" name="IDIOT">     3</i>
   <i type="logical" name="LMUSIC"> F  </i>
   <v name="POMASS">    127.60000000     95.94000000</v>
   <v name="DARWINR">      0.00000000      0.00000000</v>
   <v name="DARWINV">      1.00000000      1.00000000</v>
   <i type="logical" name="LCORR"> T  </i>
  </separator>
  <i type="logical" name="GGA_COMPAT"> T  </i>
  <i type="logical" name="LBERRY"> F  </i>
  <i type="int" name="ICORELEVEL">     0</i>
  <i type="logical" name="LDAU"> F  </i>
  <i type="int" name="I_CONSTRAINED_M">     0</i>
  <separator name="electronic exchange-correlation" >
   <i type="string" name="GGA">--</i>
   <i type="int" name="VOSKOWN">     0</i>
   <i type="logical" name="LHFCALC"> F  </i>
   <i type="string" name="PRECFOCK"></i>
   <i type="logical" name="LSYMGRAD"> F  </i>
   <i type="logical" name="LHFONE"> F  </i>
   <i type="logical" name="LRHFCALC"> F  </i>
   <i type="logical" name="LTHOMAS"> F  </i>
   <i type="logical" name="LMODELHF"> F  </i>
   <i name="ENCUT4O">     -1.00000000</i>
   <i type="int" name="EXXOEP">     0</i>
   <i type="int" name="FOURORBIT">     0</i>
   <i name="AEXX">      0.00000000</i>
   <i name="HFALPHA">      0.00000000</i>
   <i name="MCALPHA">      0.00000000</i>
   <i name="ALDAX">      1.00000000</i>
   <i name="AGGAX">      1.00000000</i>
   <i name="ALDAC">      1.00000000</i>
   <i name="AGGAC">      1.00000000</i>
   <i type="int" name="NKREDX">     1</i>
   <i type="int" name="NKREDY">     1</i>
   <i type="int" name="NKREDZ">     1</i>
   <i type="logical" name="SHIFTRED"> F  </i>
   <i type="logical" name="ODDONLY"> F  </i>
   <i type="logical" name="EVENONLY"> F  </i>
   <i type="int" name="LMAXFOCK">     0</i>
   <i type="int" name="NMAXFOCKAE">     0</i>
   <i type="logical" name="LFOCKAEDFT"> F  </i>
   <i name="HFSCREEN">      0.00000000</i>
   <i name="HFSCREENC">      0.00000000</i>
   <i type="int" name="NBANDSGWLOW">     0</i>
  </separator>
  <separator name="vdW DFT" >
   <i type="logical" name="LUSE_VDW"> F  </i>
   <i name="Zab_VDW">     -0.84910000</i>
   <i name="PARAM1">      0.12340000</i>
   <i name="PARAM2">      1.00000000</i>
   <i name="PARAM3">      0.00000000</i>
  </separator>
  <separator name="model GW" >
   <i type="int" name="MODEL_GW">     0</i>
   <i name="MODEL_EPS0">     37.51651923</i>
   <i name="MODEL_ALPHA">      1.00000000</i>
  </separator>
  <separator name="linear response parameters" >
   <i type="logical" name="LEPSILON"> F  </i>
   <i type="logical" name="LRPA"> F  </i>
   <i type="logical" name="LNABLA"> F  </i>
   <i type="logical" name="LVEL"> F  </i>
   <i type="int" name="KINTER">     0</i>
   <i name="CSHIFT">      0.10000000</i>
   <i name="OMEGAMAX">     -1.00000000</i>
   <i name="DEG_THRESHOLD">      0.00200000</i>
  </separator>
  <separator name="orbital magnetization" >
   <i type="logical" name="NUCIND"> F  </i>
   <v name="MAGPOS">      0.00000000      0.00000000      0.00000000</v>
   <i type="logical" name="LNICSALL"> T  </i>
   <i type="logical" name="ORBITALMAG"> F  </i>
   <i type="logical" name="LMAGBLOCH"> F  </i>
   <i type="logical" name="LCHIMAG"> F  </i>
   <i type="logical" name="LGAUGE"> T  </i>
   <i type="int" name="MAGATOM">     0</i>
   <v name="MAGDIPOL">      0.00000000      0.00000000      0.00000000</v>
   <v name="AVECCONST">      0.00000000      0.00000000      0.00000000</v>
  </separator>
  <separator name="response functions" >
   <i type="logical" name="LADDER"> F  </i>
   <i type="logical" name="LFXC"> F  </i>
   <i type="logical" name="LHARTREE"> T  </i>
   <i type="int" name="IBSE">     0</i>
   <i type="logical" name="LTCTE"> F  </i>
   <i type="logical" name="LTETE"> F  </i>
   <i type="logical" name="LTRIPLET"> F  </i>
   <i type="logical" name="LFXCEPS"> F  </i>
   <i type="logical" name="LFXHEG"> F  </i>
   <i type="logical" name="L2ORDER"> F  </i>
   <i type="logical" name="LUSEW"> F  </i>
   <i name="ENCUTGW">     -2.00000000</i>
   <i name="ENCUTGWSOFT">     -2.00000000</i>
   <i name="ENCUTLF">     -1.00000000</i>
   <i type="int" name="LMAXMP2">    -1</i>
   <i name="SCISSOR">      0.00000000</i>
   <i type="int" name="NOMEGA">     0</i>
   <i type="int" name="NOMEGAR">     0</i>
   <i type="int" name="NBANDSGW">    -1</i>
   <i type="int" name="NBANDSO">    -1</i>
   <i type="int" name="NBANDSV">    -1</i>
   <i type="int" name="NELM">     1</i>
   <i type="int" name="DIM">     3</i>
   <i type="int" name="ANTIRES">     0</i>
   <i name="OMEGAMAX">    -30.00000000</i>
   <i name="OMEGAMIN">    -30.00000000</i>
   <i name="OMEGATL">   -200.00000000</i>
   <i type="int" name="OMEGAGRID">     0</i>
   <i name="CSHIFT">     -0.10000000</i>
   <i type="logical" name="SELFENERGY"> F  </i>
   <i type="logical" name="LSPECTRAL"> F  </i>
   <i type="logical" name="ODDONLYGW"> F  </i>
   <i type="logical" name="EVENONLYGW"> F  </i>
   <i type="int" name="NKREDLFX">     1</i>
   <i type="int" name="NKREDLFY">     1</i>
   <i type="int" name="NKREDLFZ">     1</i>
   <i type="int" name="MAXMEM">  1800</i>
   <i type="int" name="TELESCOPE">     0</i>
   <i type="int" name="TAUPAR">     1</i>
  </separator>
  <separator name="External order field" >
   <i name="OFIELD_KAPPA">      0.00000000</i>
   <v name="OFIELD_K">      0.00000000      0.00000000      0.00000000</v>
   <i name="OFIELD_Q6_NEAR">      0.00000000</i>
   <i name="OFIELD_Q6_FAR">      0.00000000</i>
   <i name="OFIELD_A">      0.00000000</i>
  </separator>
 </parameters>
 <atominfo>
  <atoms>      45 </atoms>
  <types>       2 </types>
  <array name="atoms" >
   <dimension dim="1">ion</dimension>
   <field type="string">element</field>
   <field type="int">atomtype</field>
   <set>
    <rc><c>Te</c><c>   1</c></rc>
    <rc><c>Te</c><c>   1</c></rc>
    <rc><c>Te</c><c>   1</c></rc>
    <rc><c>Te</c><c>   1</c></rc>
    <rc><c>Te</c><c>   1</c></rc>
    <rc><c>Te</c><c>   1</c></rc>
    <rc><c>Te</c><c>   1</c></rc>
    <rc><c>Te</c><c>   1</c></rc>
    <rc><c>Te</c><c>   1</c></rc>
    <rc><c>Te</c><c>   1</c></rc>
    <rc><c>Te</c><c>   1</c></rc>
    <rc><c>Te</c><c>   1</c></rc>
    <rc><c>Te</c><c>   1</c></rc>
    <rc><c>Te</c><c>   1</c></rc>
    <rc><c>Te</c><c>   1</c></rc>
    <rc><c>Te</c><c>   1</c></rc>
    <rc><c>Te</c><c>   1</c></rc>
    <rc><c>Te</c><c>   1</c></rc>
    <rc><c>Te</c><c>   1</c></rc>
    <rc><c>Te</c><c>   1</c></rc>
    <rc><c>Te</c><c>   1</c></rc>
    <rc><c>Te</c><c>   1</c></rc>
    <rc><c>Te</c><c>   1</c></rc>
    <rc><c>Te</c><c>   1</c></rc>
    <rc><c>Te</c><c>   1</c></rc>
    <rc><c>Te</c><c>   1</c></rc>
    <rc><c>Te</c><c>   1</c></rc>
    <rc><c>Te</c><c>   1</c></rc>
    <rc><c>Te</c><c>   1</c></rc>
    <rc><c>Mo</c><c>   2</c></rc>
    <rc><c>Mo</c><c>   2</c></rc>
    <rc><c>Mo</c><c>   2</c></rc>
    <rc><c>Mo</c><c>   2</c></rc>
    <rc><c>Mo</c><c>   2</c></rc>
    <rc><c>Mo</c><c>   2</c></rc>
    <rc><c>Mo</c><c>   2</c></rc>
    <rc><c>Mo</c><c>   2</c></rc>
    <rc><c>Mo</c><c>   2</c></rc>
    <rc><c>Mo</c><c>   2</c></rc>
    <rc><c>Mo</c><c>   2</c></rc>
    <rc><c>Mo</c><c>   2</c></rc>
    <rc><c>Mo</c><c>   2</c></rc>
    <rc><c>Mo</c><c>   2</c></rc>
    <rc><c>Mo</c><c>   2</c></rc>
    <rc><c>Mo</c><c>   2</c></rc>
   </set>
  </array>
  <array name="atomtypes" >
   <dimension dim="1">type</dimension>
   <field type="int">atomspertype</field>
   <field type="string">element</field>
   <field>mass</field>
   <field>valence</field>
   <field type="string">pseudopotential</field>
   <set>
    <rc><c>  29</c><c>Te</c><c>    127.60000000</c><c>      6.00000000</c><c>  PAW_PBE Te 08Apr2002                  </c></rc>
    <rc><c>  16</c><c>Mo</c><c>     95.94000000</c><c>      6.00000000</c><c>  PAW_PBE Mo 08Apr2002                  </c></rc>
   </set>
  </array>
 </atominfo>
 <structure name="initialpos" >
  <crystal>
   <varray name="basis" >
    <v>      13.80799961       0.00000000       0.00000000 </v>
    <v>       0.00000000      12.73600006       0.00000000 </v>
    <v>       0.00000000       0.00000000      16.00000000 </v>
   </varray>
   <i name="volume">   2813.73894219 </i>
   <varray name="rec_basis" >
    <v>       0.07242179       0.00000000       0.00000000 </v>
    <v>       0.00000000       0.07851759       0.00000000 </v>
    <v>       0.00000000       0.00000000       0.06250000 </v>
   </varray>
  </crystal>
  <varray name="positions" >
   <v>       0.62508010       0.04475266       0.62732065 </v>
   <v>       0.35626280       0.05551761       0.62661404 </v>
   <v>       0.89882821       0.05032304       0.62330497 </v>
   <v>       0.12226673       0.55091631       0.63362853 </v>
   <v>       0.62647258       0.54862564       0.63114639 </v>
   <v>       0.37421544       0.54639722       0.63677914 </v>
   <v>       0.87555501       0.54937683       0.62852141 </v>
   <v>       0.13107324       0.38188158       0.40575591 </v>
   <v>       0.62196453       0.37335221       0.41085426 </v>
   <v>       0.37252981       0.38012706       0.40934243 </v>
   <v>       0.87607712       0.37550609       0.40780448 </v>
   <v>       0.13414522       0.86463849       0.39866510 </v>
   <v>       0.37794803       0.87189515       0.41142002 </v>
   <v>       0.86735094       0.87560442       0.40594522 </v>
   <v>       0.00115488       0.13156838       0.36146779 </v>
   <v>       0.49841546       0.12053975       0.37132296 </v>
   <v>       0.25299091       0.13209351       0.36348028 </v>
   <v>       0.75079986       0.12342450       0.37081851 </v>
   <v>       0.00907397       0.62916169       0.37300511 </v>
   <v>       0.48705930       0.63634591       0.38035356 </v>
   <v>       0.74365602       0.63543609       0.37390724 </v>
   <v>       0.00581389       0.30041341       0.59144857 </v>
   <v>       0.49856251       0.30145774       0.59246671 </v>
   <v>       0.24377367       0.30123801       0.59223924 </v>
   <v>       0.75262006       0.30102940       0.58980150 </v>
   <v>       0.00816161       0.80849295       0.58566610 </v>
   <v>       0.49583393       0.80599250       0.59591655 </v>
   <v>       0.23998439       0.81614098       0.59491941 </v>
   <v>       0.75334455       0.80582117       0.59333754 </v>
   <v>       0.12678462       0.17066753       0.48772689 </v>
   <v>       0.62371722       0.17398560       0.49342029 </v>
   <v>       0.37262514       0.18239878       0.49217243 </v>
   <v>       0.88078690       0.17942402       0.49012487 </v>
   <v>       0.13466026       0.67465954       0.49605007 </v>
   <v>       0.62320713       0.68216506       0.50150763 </v>
   <v>       0.36339679       0.68006819       0.50489359 </v>
   <v>       0.87506680       0.67895748       0.49361129 </v>
   <v>       0.01649156       0.99957102       0.49327543 </v>
   <v>       0.48731229       0.00058781       0.51026075 </v>
   <v>       0.23476835       0.00641596       0.49905568 </v>
   <v>       0.76182297       0.00284678       0.50937870 </v>
   <v>       0.00287210       0.49804801       0.50691780 </v>
   <v>       0.49790493       0.50031397       0.51070018 </v>
   <v>       0.24816654       0.50793742       0.51035560 </v>
   <v>       0.74940165       0.49824993       0.50571139 </v>
  </varray>
 </structure>
 <calculation>
  <scstep>
   <time name="dav">    7.17    7.17</time>
   <time name="total">    7.69    7.74</time>
   <energy>
    <i name="alphaZ">    187.69165091 </i>
    <i name="ewald">  12140.72913014 </i>
    <i name="hartreedc"> -21670.04568924 </i>
    <i name="XCdc">  -1790.63650243 </i>
    <i name="pawpsdc">  10273.91005553 </i>
    <i name="pawaedc">  -8019.19805879 </i>
    <i name="eentropy">     -0.03017416 </i>
    <i name="bandstr">    452.49360092 </i>
    <i name="atom">   9955.10090737 </i>
    <i name="e_fr_energy">   1530.01492025 </i>
    <i name="e_wo_entrp">   1530.04509441 </i>
    <i name="e_0_energy">   1530.03000733 </i>
   </energy>
  </scstep>
  <scstep>
   <time name="dav">    9.52    9.52</time>
   <time name="total">    9.67    9.68</time>
   <energy>
    <i name="e_fr_energy">    -78.58301181 </i>
    <i name="e_wo_entrp">    -78.57252060 </i>
    <i name="e_0_energy">    -78.57776620 </i>
   </energy>
  </scstep>
  <scstep>
   <time name="dav">    7.78    7.82</time>
   <time name="total">    7.93    7.98</time>
   <energy>
    <i name="e_fr_energy">   -271.53850760 </i>
    <i name="e_wo_entrp">   -271.53340905 </i>
    <i name="e_0_energy">   -271.53595833 </i>
   </energy>
  </scstep>
  <scstep>
   <time name="dav">    9.80    9.80</time>
   <time name="total">    9.95    9.95</time>
   <energy>
    <i name="e_fr_energy">   -282.85579407 </i>
    <i name="e_wo_entrp">   -282.85144337 </i>
    <i name="e_0_energy">   -282.85361872 </i>
   </energy>
  </scstep>
  <scstep>
   <time name="dav">   10.07   10.07</time>
   <time name="total">   10.93   10.93</time>
   <energy>
    <i name="e_fr_energy">   -283.18994662 </i>
    <i name="e_wo_entrp">   -283.18555247 </i>
    <i name="e_0_energy">   -283.18774955 </i>
   </energy>
  </scstep>
  <scstep>
   <time name="dav">    9.12    9.16</time>
   <time name="total">   10.37   10.41</time>
   <energy>
    <i name="e_fr_energy">   -276.26825390 </i>
    <i name="e_wo_entrp">   -276.24686971 </i>
    <i name="e_0_energy">   -276.25756180 </i>
   </energy>
  </scstep>
  <scstep>
   <time name="dav">    9.30    9.30</time>
   <time name="total">   10.55   10.56</time>
   <energy>
    <i name="e_fr_energy">   -279.95096682 </i>
    <i name="e_wo_entrp">   -279.94578202 </i>
    <i name="e_0_energy">   -279.94837442 </i>
   </energy>
  </scstep>
  <scstep>
   <time name="dav">    9.58    9.58</time>
   <time name="total">   10.83   10.83</time>
   <energy>
    <i name="e_fr_energy">   -272.51182810 </i>
    <i name="e_wo_entrp">   -272.50100297 </i>
    <i name="e_0_energy">   -272.50641553 </i>
   </energy>
  </scstep>
  <scstep>
   <time name="dav">    9.40    9.44</time>
   <time name="total">   10.66   10.69</time>
   <energy>
    <i name="e_fr_energy">   -271.89343221 </i>
    <i name="e_wo_entrp">   -271.88414125 </i>
    <i name="e_0_energy">   -271.88878673 </i>
   </energy>
  </scstep>
  <scstep>
   <time name="dav">    8.81    8.81</time>
   <time name="total">   10.05   10.05</time>
   <energy>
    <i name="e_fr_energy">   -271.75410649 </i>
    <i name="e_wo_entrp">   -271.74247609 </i>
    <i name="e_0_energy">   -271.74829129 </i>
   </energy>
  </scstep>
  <scstep>
   <time name="dav">    8.81    8.81</time>
   <time name="total">   10.05   10.06</time>
   <energy>
    <i name="e_fr_energy">   -271.75096134 </i>
    <i name="e_wo_entrp">   -271.73778722 </i>
    <i name="e_0_energy">   -271.74437428 </i>
   </energy>
  </scstep>
  <scstep>
   <time name="dav">    9.32    9.36</time>
   <time name="total">   10.56   10.61</time>
   <energy>
    <i name="e_fr_energy">   -271.72576875 </i>
    <i name="e_wo_entrp">   -271.71483275 </i>
    <i name="e_0_energy">   -271.72030075 </i>
   </energy>
  </scstep>
  <scstep>
   <time name="dav">    9.04    9.04</time>
   <time name="total">   10.29   10.29</time>
   <energy>
    <i name="e_fr_energy">   -271.71979914 </i>
    <i name="e_wo_entrp">   -271.70845093 </i>
    <i name="e_0_energy">   -271.71412504 </i>
   </energy>
  </scstep>
  <scstep>
   <time name="dav">    9.38    9.39</time>
   <time name="total">   10.63   10.63</time>
   <energy>
    <i name="e_fr_energy">   -271.70762277 </i>
    <i name="e_wo_entrp">   -271.69563320 </i>
    <i name="e_0_energy">   -271.70162798 </i>
   </energy>
  </scstep>
  <scstep>
   <time name="dav">    8.68    8.72</time>
   <time name="total">    9.93    9.97</time>
   <energy>
    <i name="e_fr_energy">   -271.70579863 </i>
    <i name="e_wo_entrp">   -271.69383183 </i>
    <i name="e_0_energy">   -271.69981523 </i>
   </energy>
  </scstep>
  <scstep>
   <time name="dav">    8.98    8.98</time>
   <time name="total">   10.23   10.23</time>
   <energy>
    <i name="e_fr_energy">   -271.70452989 </i>
    <i name="e_wo_entrp">   -271.69264357 </i>
    <i name="e_0_energy">   -271.69858673 </i>
   </energy>
  </scstep>
  <scstep>
   <time name="dav">    8.70    8.70</time>
   <time name="total">    9.95    9.95</time>
   <energy>
    <i name="e_fr_energy">   -271.70280560 </i>
    <i name="e_wo_entrp">   -271.69101623 </i>
    <i name="e_0_energy">   -271.69691092 </i>
   </energy>
  </scstep>
  <scstep>
   <time name="dav">    8.74    8.77</time>
   <time name="total">    9.98   10.02</time>
   <energy>
    <i name="e_fr_energy">   -271.70191038 </i>
    <i name="e_wo_entrp">   -271.68997411 </i>
    <i name="e_0_energy">   -271.69594225 </i>
   </energy>
  </scstep>
  <scstep>
   <time name="dav">    9.01    9.02</time>
   <time name="total">   10.26   10.27</time>
   <energy>
    <i name="e_fr_energy">   -271.70196224 </i>
    <i name="e_wo_entrp">   -271.69005852 </i>
    <i name="e_0_energy">   -271.69601038 </i>
   </energy>
  </scstep>
  <scstep>
   <time name="dav">    8.70    8.70</time>
   <time name="total">    9.95    9.95</time>
   <energy>
    <i name="e_fr_energy">   -271.70290021 </i>
    <i name="e_wo_entrp">   -271.69102281 </i>
    <i name="e_0_energy">   -271.69696151 </i>
   </energy>
  </scstep>
  <scstep>
   <time name="dav">    9.00    9.04</time>
   <time name="total">   10.24   10.28</time>
   <energy>
    <i name="e_fr_energy">   -271.70383790 </i>
    <i name="e_wo_entrp">   -271.69202108 </i>
    <i name="e_0_energy">   -271.69792949 </i>
   </energy>
  </scstep>
  <scstep>
   <time name="dav">    7.91    7.91</time>
   <time name="total">    9.16    9.16</time>
   <energy>
    <i name="e_fr_energy">   -271.70451038 </i>
    <i name="e_wo_entrp">   -271.69266533 </i>
    <i name="e_0_energy">   -271.69858785 </i>
   </energy>
  </scstep>
  <scstep>
   <time name="dav">    8.64    8.64</time>
   <time name="total">    9.90    9.90</time>
   <energy>
    <i name="e_fr_energy">   -271.70511964 </i>
    <i name="e_wo_entrp">   -271.69328198 </i>
    <i name="e_0_energy">   -271.69920081 </i>
   </energy>
  </scstep>
  <scstep>
   <time name="dav">    8.82    8.86</time>
   <time name="total">   10.06   10.10</time>
   <energy>
    <i name="e_fr_energy">   -271.70562598 </i>
    <i name="e_wo_entrp">   -271.69379604 </i>
    <i name="e_0_energy">   -271.69971101 </i>
   </energy>
  </scstep>
  <scstep>
   <time name="dav">    8.00    8.00</time>
   <time name="total">    9.23    9.24</time>
   <energy>
    <i name="e_fr_energy">   -271.70616950 </i>
    <i name="e_wo_entrp">   -271.69433447 </i>
    <i name="e_0_energy">   -271.70025198 </i>
   </energy>
  </scstep>
  <scstep>
   <time name="dav">    6.85    6.85</time>
   <time name="total">    8.09    8.10</time>
   <energy>
    <i name="e_fr_energy">   -271.70627076 </i>
    <i name="e_wo_entrp">   -271.69444479 </i>
    <i name="e_0_energy">   -271.70035777 </i>
   </energy>
  </scstep>
  <scstep>
   <time name="dav">    6.45    6.45</time>
   <time name="total">    7.69    7.69</time>
   <energy>
    <i name="e_fr_energy">   -271.70638241 </i>
    <i name="e_wo_entrp">   -271.69455023 </i>
    <i name="e_0_energy">   -271.70046632 </i>
   </energy>
  </scstep>
  <scstep>
   <time name="dav">    6.52    6.55</time>
   <time name="total">    7.77    7.80</time>
   <energy>
    <i name="e_fr_energy">   -271.70645800 </i>
    <i name="e_wo_entrp">   -271.69462449 </i>
    <i name="e_0_energy">   -271.70054124 </i>
   </energy>
  </scstep>
  <scstep>
   <time name="dav">    6.62    6.66</time>
   <time name="total">    7.86    7.91</time>
   <energy>
    <i name="e_fr_energy">   -271.70648225 </i>
    <i name="e_wo_entrp">   -271.69464894 </i>
    <i name="e_0_energy">   -271.70056560 </i>
   </energy>
  </scstep>
  <scstep>
   <time name="dav">    5.94    5.94</time>
   <time name="total">    7.18    7.19</time>
   <energy>
    <i name="e_fr_energy">   -271.70649482 </i>
    <i name="e_wo_entrp">   -271.69466086 </i>
    <i name="e_0_energy">   -271.70057784 </i>
   </energy>
  </scstep>
  <scstep>
   <time name="dav">    5.47    5.47</time>
   <time name="total">    6.70    6.70</time>
   <energy>
    <i name="e_fr_energy">   -271.70649705 </i>
    <i name="e_wo_entrp">   -271.69466320 </i>
    <i name="e_0_energy">   -271.70058013 </i>
   </energy>
  </scstep>
  <scstep>
   <time name="dav">    5.73    5.77</time>
   <time name="total">    6.95    6.99</time>
   <energy>
    <i name="e_fr_energy">   -271.70649994 </i>
    <i name="e_wo_entrp">   -271.69466579 </i>
    <i name="e_0_energy">   -271.70058286 </i>
   </energy>
  </scstep>
  <scstep>
   <time name="dav">    5.50    5.50</time>
   <time name="total">    6.03    6.03</time>
   <energy>
    <i name="alphaZ">    187.69165091 </i>
    <i name="ewald">  12140.72913014 </i>
    <i name="hartreedc"> -21811.19375359 </i>
    <i name="XCdc">  -1779.00656763 </i>
    <i name="pawpsdc">  19666.50760839 </i>
    <i name="pawaedc"> -17432.35226135 </i>
    <i name="eentropy">     -0.01183409 </i>
    <i name="bandstr">  -1199.17138085 </i>
    <i name="atom">   9955.10090737 </i>
    <i name="e_fr_energy">   -271.70650070 </i>
    <i name="e_wo_entrp">   -271.69466661 </i>
    <i name="e_0_energy">   -271.70058366 </i>
   </energy>
  </scstep>
  <structure>
   <crystal>
    <varray name="basis" >
     <v>      13.80799961       0.00000000       0.00000000 </v>
     <v>       0.00000000      12.73600006       0.00000000 </v>
     <v>       0.00000000       0.00000000      16.00000000 </v>
    </varray>
    <i name="volume">   2813.73894219 </i>
    <varray name="rec_basis" >
     <v>       0.07242179       0.00000000       0.00000000 </v>
     <v>       0.00000000       0.07851759       0.00000000 </v>
     <v>       0.00000000       0.00000000       0.06250000 </v>
    </varray>
   </crystal>
   <varray name="positions" >
    <v>       0.62508010       0.04475266       0.62732065 </v>
    <v>       0.35626280       0.05551761       0.62661404 </v>
    <v>       0.89882821       0.05032304       0.62330497 </v>
    <v>       0.12226673       0.55091631       0.63362853 </v>
    <v>       0.62647258       0.54862564       0.63114639 </v>
    <v>       0.37421544       0.54639722       0.63677914 </v>
    <v>       0.87555501       0.54937683       0.62852141 </v>
    <v>       0.13107324       0.38188158       0.40575591 </v>
    <v>       0.62196453       0.37335221       0.41085426 </v>
    <v>       0.37252981       0.38012706       0.40934243 </v>
    <v>       0.87607712       0.37550609       0.40780448 </v>
    <v>       0.13414522       0.86463849       0.39866510 </v>
    <v>       0.37794803       0.87189515       0.41142002 </v>
    <v>       0.86735094       0.87560442       0.40594522 </v>
    <v>       0.00115488       0.13156838       0.36146779 </v>
    <v>       0.49841546       0.12053975       0.37132296 </v>
    <v>       0.25299091       0.13209351       0.36348028 </v>
    <v>       0.75079986       0.12342450       0.37081851 </v>
    <v>       0.00907397       0.62916169       0.37300511 </v>
    <v>       0.48705930       0.63634591       0.38035356 </v>
    <v>       0.74365602       0.63543609       0.37390724 </v>
    <v>       0.00581389       0.30041341       0.59144857 </v>
    <v>       0.49856251       0.30145774       0.59246671 </v>
    <v>       0.24377367       0.30123801       0.59223924 </v>
    <v>       0.75262006       0.30102940       0.58980150 </v>
    <v>       0.00816161       0.80849295       0.58566610 </v>
    <v>       0.49583393       0.80599250       0.59591655 </v>
    <v>       0.23998439       0.81614098       0.59491941 </v>
    <v>       0.75334455       0.80582117       0.59333754 </v>
    <v>       0.12678462       0.17066753       0.48772689 </v>
    <v>       0.62371722       0.17398560       0.49342029 </v>
    <v>       0.37262514       0.18239878       0.49217243 </v>
    <v>       0.88078690       0.17942402       0.49012487 </v>
    <v>       0.13466026       0.67465954       0.49605007 </v>
    <v>       0.62320713       0.68216506       0.50150763 </v>
    <v>       0.36339679       0.68006819       0.50489359 </v>
    <v>       0.87506680       0.67895748       0.49361129 </v>
    <v>       0.01649156       0.99957102       0.49327543 </v>
    <v>       0.48731229       0.00058781       0.51026075 </v>
    <v>       0.23476835       0.00641596       0.49905568 </v>
    <v>       0.76182297       0.00284678       0.50937870 </v>
    <v>       0.00287210       0.49804801       0.50691780 </v>
    <v>       0.49790493       0.50031397       0.51070018 </v>
    <v>       0.24816654       0.50793742       0.51035560 </v>
    <v>       0.74940165       0.49824993       0.50571139 </v>
   </varray>
  </structure>
  <varray name="forces" >
   <v>      -0.00092194      -0.00068606       0.00306687 </v>
   <v>      -0.00095283       0.00169648       0.00202835 </v>
   <v>       0.00302067      -0.00074008      -0.00269749 </v>
   <v>       0.00155517       0.00011329       0.00245611 </v>
   <v>       0.00277939      -0.00468161       0.00153258 </v>
   <v>       0.00203304       0.00003868       0.00175028 </v>
   <v>      -0.00183209      -0.00086818       0.00061402 </v>
   <v>       0.00069596      -0.00047627       0.00016231 </v>
   <v>      -0.00124917      -0.00046218      -0.00063603 </v>
   <v>      -0.00123729      -0.00027344       0.00057374 </v>
   <v>       0.00222618       0.00033659      -0.00210363 </v>
   <v>       0.00653819      -0.00235110      -0.00033111 </v>
   <v>      -0.00021763       0.00005391       0.00176132 </v>
   <v>      -0.00108516       0.00058652       0.00052624 </v>
   <v>      -0.00140788       0.00032084      -0.00033857 </v>
   <v>       0.00102502      -0.00034790      -0.00246385 </v>
   <v>      -0.00179699       0.00136163      -0.00062738 </v>
   <v>      -0.00355689       0.00044211       0.00153822 </v>
   <v>      -0.00289074      -0.00090984      -0.00056548 </v>
   <v>      -0.00185384       0.00127890      -0.00017892 </v>
   <v>      -0.00374712       0.00335767      -0.00228716 </v>
   <v>      -0.00010908       0.00251906       0.00034033 </v>
   <v>      -0.00303531       0.00007145      -0.00215386 </v>
   <v>      -0.00061850      -0.00291709       0.00243199 </v>
   <v>       0.00196075       0.00197558      -0.00346769 </v>
   <v>       0.00353014      -0.00132759      -0.00207880 </v>
   <v>       0.00007240      -0.00092822       0.00087662 </v>
   <v>      -0.00368883      -0.00019516       0.00256589 </v>
   <v>       0.00116254      -0.00185930       0.00244085 </v>
   <v>      -0.00339504       0.00230089      -0.00277269 </v>
   <v>       0.00071019       0.00515537       0.00220012 </v>
   <v>      -0.00492442       0.00327167       0.00665214 </v>
   <v>       0.00225845      -0.00126043       0.00318893 </v>
   <v>       0.00040767       0.00473688      -0.00033360 </v>
   <v>      -0.00204423       0.00267010      -0.00736174 </v>
   <v>       0.00083497       0.00063935      -0.00145498 </v>
   <v>       0.00276001       0.00084251      -0.00622910 </v>
   <v>      -0.00078177      -0.00062249      -0.00261118 </v>
   <v>       0.00311270      -0.00226123       0.00459483 </v>
   <v>       0.00327236      -0.00303782       0.00096162 </v>
   <v>       0.00070546       0.00284814      -0.00201498 </v>
   <v>       0.00011475      -0.00144763      -0.00356073 </v>
   <v>      -0.00211146      -0.00394183       0.00180348 </v>
   <v>       0.00089182      -0.00419096       0.00123439 </v>
   <v>       0.00179041      -0.00083122       0.00096777 </v>
  </varray>
  <varray name="stress" >
   <v>     -11.41415190       0.13308737       0.01801967 </v>
   <v>       0.13308740      -7.13944672      -0.01220217 </v>
   <v>       0.01801929      -0.01220226      -0.11318723 </v>
  </varray>
  <energy>
   <i name="e_fr_energy">   -271.70650070 </i>
   <i name="e_wo_entrp">   -271.70058366 </i>
   <i name="e_0_energy">     -0.01183409 </i>
  </energy>
  <scstep>
   <time name="total">   12.40   12.40</time>
   <energy>
    <i name="e_fr_energy">   -112.47460971 </i>
    <i name="e_wo_entrp">   -112.47225341 </i>
    <i name="e_0_energy">   -112.47343156 </i>
   </energy>
  </scstep>
  <scstep>
   <time name="total">   11.13   11.18</time>
   <energy>
    <i name="e_fr_energy">   -109.24374402 </i>
    <i name="e_wo_entrp">   -109.24138772 </i>
    <i name="e_0_energy">   -109.24256587 </i>
   </energy>
  </scstep>
  <scstep>
   <time name="total">   10.96   10.96</time>
   <energy>
    <i name="e_fr_energy">   -109.58866078 </i>
    <i name="e_wo_entrp">   -109.58685600 </i>
    <i name="e_0_energy">   -109.58775839 </i>
   </energy>
  </scstep>
  <scstep>
   <time name="total">   10.77   10.78</time>
   <energy>
    <i name="e_fr_energy">   -109.00599652 </i>
    <i name="e_wo_entrp">   -109.00409591 </i>
    <i name="e_0_energy">   -109.00504621 </i>
   </energy>
  </scstep>
  <scstep>
   <time name="total">   11.27   11.31</time>
   <energy>
    <i name="e_fr_energy">   -108.83713057 </i>
    <i name="e_wo_entrp">   -108.83579938 </i>
    <i name="e_0_energy">   -108.83646497 </i>
   </energy>
  </scstep>
  <scstep>
   <time name="total">   10.69   10.69</time>
   <energy>
    <i name="e_fr_energy">   -108.78521260 </i>
    <i name="e_wo_entrp">   -108.78375601 </i>
    <i name="e_0_energy">   -108.78448430 </i>
   </energy>
  </scstep>
  <scstep>
   <time name="total">   11.46   11.46</time>
   <energy>
    <i name="e_fr_energy">   -108.80777989 </i>
    <i name="e_wo_entrp">   -108.80624401 </i>
    <i name="e_0_energy">   -108.80701195 </i>
   </energy>
  </scstep>
  <scstep>
   <time name="total">   11.21   11.25</time>
   <energy>
    <i name="e_fr_energy">   -108.81416737 </i>
    <i name="e_wo_entrp">   -108.81254098 </i>
    <i name="e_0_energy">   -108.81335418 </i>
   </energy>
  </scstep>
  <scstep>
   <time name="total">   11.38   11.38</time>
   <energy>
    <i name="e_fr_energy">   -108.82725612 </i>
    <i name="e_wo_entrp">   -108.82579986 </i>
    <i name="e_0_energy">   -108.82652799 </i>
   </energy>
  </scstep>
  <scstep>
   <time name="total">   11.14   11.17</time>
   <energy>
    <i name="e_fr_energy">   -108.82904820 </i>
    <i name="e_wo_entrp">   -108.82739172 </i>
    <i name="e_0_energy">   -108.82821996 </i>
   </energy>
  </scstep>
  <scstep>
   <time name="total">   12.40   12.46</time>
   <energy>
    <i name="e_fr_energy">   -110.98829854 </i>
    <i name="e_wo_entrp">   -110.98233411 </i>
    <i name="e_0_energy">   -110.98531632 </i>
   </energy>
  </scstep>
  <scstep>
   <time name="total">   10.74   10.75</time>
   <energy>
    <i name="e_fr_energy">   -108.35670224 </i>
    <i name="e_wo_entrp">   -108.35073781 </i>
    <i name="e_0_energy">   -108.35372002 </i>
   </energy>
  </scstep>
  <scstep>
   <time name="total">   10.80   10.80</time>
   <energy>
    <i name="e_fr_energy">   -108.42358517 </i>
    <i name="e_wo_entrp">   -108.41710297 </i>
    <i name="e_0_energy">   -108.42034407 </i>
   </energy>
  </scstep>
  <scstep>
   <time name="total">   10.42   10.46</time>
   <energy>
    <i name="e_fr_energy">   -108.13289997 </i>
    <i name="e_wo_entrp">   -108.12772907 </i>
    <i name="e_0_energy">   -108.13031452 </i>
   </energy>
  </scstep>
  <scstep>
   <time name="total">   10.96   10.96</time>
   <energy>
    <i name="e_fr_energy">   -108.02669738 </i>
    <i name="e_wo_entrp">   -108.02030163 </i>
    <i name="e_0_energy">   -108.02349951 </i>
   </energy>
  </scstep>
  <scstep>
   <time name="total">   10.74   10.79</time>
   <energy>
    <i name="e_fr_energy">   -107.93801468 </i>
    <i name="e_wo_entrp">   -107.93320881 </i>
    <i name="e_0_energy">   -107.93561174 </i>
   </energy>
  </scstep>
  <scstep>
   <time name="total">   11.28   11.33</time>
   <energy>
    <i name="e_fr_energy">   -107.96673176 </i>
    <i name="e_wo_entrp">   -107.96136162 </i>
    <i name="e_0_energy">   -107.96404669 </i>
   </energy>
  </scstep>
  <scstep>
   <time name="total">   10.99   10.99</time>
   <energy>
    <i name="e_fr_energy">   -107.97569683 </i>
    <i name="e_wo_entrp">   -107.97059511 </i>
    <i name="e_0_energy">   -107.97314597 </i>
   </energy>
  </scstep>
  <scstep>
   <time name="total">   11.14   11.25</time>
   <energy>
    <i name="e_fr_energy">   -107.99193341 </i>
    <i name="e_wo_entrp">   -107.98676959 </i>
    <i name="e_0_energy">   -107.98935150 </i>
   </energy>
  </scstep>
  <scstep>
   <time name="total">   10.91   10.91</time>
   <energy>
    <i name="e_fr_energy">   -107.99775253 </i>
    <i name="e_wo_entrp">   -107.99255962 </i>
    <i name="e_0_energy">   -107.99515607 </i>
   </energy>
  </scstep>
  <scstep>
   <time name="total">   11.20   11.20</time>
   <energy>
    <i name="e_fr_energy">   -108.00040420 </i>
    <i name="e_wo_entrp">   -107.99519923 </i>
    <i name="e_0_energy">   -107.99780171 </i>
   </energy>
  </scstep>
  <scstep>
   <time name="total">   11.29   11.40</time>
   <energy>
    <i name="e_fr_energy">   -108.00020404 </i>
    <i name="e_wo_entrp">   -107.99501126 </i>
    <i name="e_0_energy">   -107.99760765 </i>
   </energy>
  </scstep>
  <scstep>
   <time name="total">   12.38   12.38</time>
   <energy>
    <i name="e_fr_energy">   -116.46806604 </i>
    <i name="e_wo_entrp">   -116.46788842 </i>
    <i name="e_0_energy">   -116.46797723 </i>
   </energy>
  </scstep>
  <scstep>
   <time name="total">   10.66   10.66</time>
   <energy>
    <i name="e_fr_energy">   -110.82349550 </i>
    <i name="e_wo_entrp">   -110.82331788 </i>
    <i name="e_0_energy">   -110.82340669 </i>
   </energy>
  </scstep>
  <scstep>
   <time name="total">   10.47   10.50</time>
   <energy>
    <i name="e_fr_energy">   -111.38956563 </i>
    <i name="e_wo_entrp">   -111.38883358 </i>
    <i name="e_0_energy">   -111.38919960 </i>
   </energy>
  </scstep>
  <scstep>
   <time name="total">   10.11   10.11</time>
   <energy>
    <i name="e_fr_energy">   -110.46682424 </i>
    <i name="e_wo_entrp">   -110.46765554 </i>
    <i name="e_0_energy">   -110.46723989 </i>
   </energy>
  </scstep>
  <scstep>
   <time name="total">   10.40   10.40</time>
   <energy>
    <i name="e_fr_energy">   -110.54791400 </i>
    <i name="e_wo_entrp">   -110.54460511 </i>
    <i name="e_0_energy">   -110.54625956 </i>
   </energy>
  </scstep>
  <scstep>
   <time name="total">   10.18   10.21</time>
   <energy>
    <i name="e_fr_energy">   -110.16589786 </i>
    <i name="e_wo_entrp">   -110.16706595 </i>
    <i name="e_0_energy">   -110.16648190 </i>
   </energy>
  </scstep>
  <scstep>
   <time name="total">   10.66   10.66</time>
   <energy>
    <i name="e_fr_energy">   -110.16783396 </i>
    <i name="e_wo_entrp">   -110.16788107 </i>
    <i name="e_0_energy">   -110.16785751 </i>
   </energy>
  </scstep>
  <scstep>
   <time name="total">   10.76   10.77</time>
   <energy>
    <i name="e_fr_energy">   -110.17523728 </i>
    <i name="e_wo_entrp">   -110.17558440 </i>
    <i name="e_0_energy">   -110.17541084 </i>
   </energy>
  </scstep>
  <scstep>
   <time name="total">   10.51   10.54</time>
   <energy>
    <i name="e_fr_energy">   -110.17980293 </i>
    <i name="e_wo_entrp">   -110.17997542 </i>
    <i name="e_0_energy">   -110.17988918 </i>
   </energy>
  </scstep>
  <scstep>
   <time name="total">   10.52   10.52</time>
   <energy>
    <i name="e_fr_energy">   -110.17548769 </i>
    <i name="e_wo_entrp">   -110.17582319 </i>
    <i name="e_0_energy">   -110.17565544 </i>
   </energy>
  </scstep>
  <scstep>
   <time name="total">   10.68   10.68</time>
   <energy>
    <i name="e_fr_energy">   -110.17406709 </i>
    <i name="e_wo_entrp">   -110.17426693 </i>
    <i name="e_0_energy">   -110.17416701 </i>
   </energy>
  </scstep>
  <scstep>
   <time name="total">   12.13   12.16</time>
   <energy>
    <i name="e_fr_energy">   -111.85588299 </i>
    <i name="e_wo_entrp">   -111.85226533 </i>
    <i name="e_0_energy">   -111.85407416 </i>
   </energy>
  </scstep>
  <scstep>
   <time name="total">   10.58   10.58</time>
   <energy>
    <i name="e_fr_energy">   -108.96791977 </i>
    <i name="e_wo_entrp">   -108.96430211 </i>
    <i name="e_0_energy">   -108.96611094 </i>
   </energy>
  </scstep>
  <scstep>
   <time name="total">   10.44   10.44</time>
   <energy>
    <i name="e_fr_energy">   -109.30125304 </i>
    <i name="e_wo_entrp">   -109.30165011 </i>
    <i name="e_0_energy">   -109.30145157 </i>
   </energy>
  </scstep>
  <scstep>
   <time name="total">   10.14   10.18</time>
   <energy>
    <i name="e_fr_energy">   -108.72221879 </i>
    <i name="e_wo_entrp">   -108.71949351 </i>
    <i name="e_0_energy">   -108.72085615 </i>
   </energy>
  </scstep>
  <scstep>
   <time name="total">   10.44   10.44</time>
   <energy>
    <i name="e_fr_energy">   -108.69371775 </i>
    <i name="e_wo_entrp">   -108.69289513 </i>
    <i name="e_0_energy">   -108.69330644 </i>
   </energy>
  </scstep>
  <scstep>
   <time name="total">   10.14   10.14</time>
   <energy>
    <i name="e_fr_energy">   -108.53716908 </i>
    <i name="e_wo_entrp">   -108.53434518 </i>
    <i name="e_0_energy">   -108.53575713 </i>
   </energy>
  </scstep>
  <scstep>
   <time name="total">   10.77   10.80</time>
   <energy>
    <i name="e_fr_energy">   -108.56491806 </i>
    <i name="e_wo_entrp">   -108.56266595 </i>
    <i name="e_0_energy">   -108.56379201 </i>
   </energy>
  </scstep>
  <scstep>
   <time name="total">   10.62   10.62</time>
   <energy>
    <i name="e_fr_energy">   -108.57385310 </i>
    <i name="e_wo_entrp">   -108.57127976 </i>
    <i name="e_0_energy">   -108.57256643 </i>
   </energy>
  </scstep>
  <scstep>
   <time name="total">   10.72   10.75</time>
   <energy>
    <i name="e_fr_energy">   -108.58920030 </i>
    <i name="e_wo_entrp">   -108.58669990 </i>
    <i name="e_0_energy">   -108.58795010 </i>
   </energy>
  </scstep>
  <scstep>
   <time name="total">   10.59   10.69</time>
   <energy>
    <i name="e_fr_energy">   -108.59521830 </i>
    <i name="e_wo_entrp">   -108.59271453 </i>
    <i name="e_0_energy">   -108.59396641 </i>
   </energy>
  </scstep>
  <scstep>
   <time name="total">   10.74   10.74</time>
   <energy>
    <i name="e_fr_energy">   -108.59718833 </i>
    <i name="e_wo_entrp">   -108.59467549 </i>
    <i name="e_0_energy">   -108.59593191 </i>
   </energy>
  </scstep>
  <scstep>
   <time name="total">   12.19   12.19</time>
   <energy>
    <i name="e_fr_energy">   -111.57891875 </i>
    <i name="e_wo_entrp">   -111.58692433 </i>
    <i name="e_0_energy">   -111.58292154 </i>
   </energy>
  </scstep>
  <scstep>
   <time name="total">   10.44   10.47</time>
   <energy>
    <i name="e_fr_energy">   -108.33364625 </i>
    <i name="e_wo_entrp">   -108.34165184 </i>
    <i name="e_0_energy">   -108.33764904 </i>
   </energy>
  </scstep>
  <scstep>
   <time name="total">   10.34   10.34</time>
   <energy>
    <i name="e_fr_energy">   -108.52366958 </i>
    <i name="e_wo_entrp">   -108.53091833 </i>
    <i name="e_0_energy">   -108.52729395 </i>
   </energy>
  </scstep>
  <scstep>
   <time name="total">   10.12   10.13</time>
   <energy>
    <i name="e_fr_energy">   -108.21137747 </i>
    <i name="e_wo_entrp">   -108.21959684 </i>
    <i name="e_0_energy">   -108.21548715 </i>
   </energy>
  </scstep>
  <scstep>
   <time name="total">   10.59   10.62</time>
   <energy>
    <i name="e_fr_energy">   -108.18478439 </i>
    <i name="e_wo_entrp">   -108.19046718 </i>
    <i name="e_0_energy">   -108.18762579 </i>
   </energy>
  </scstep>
  <scstep>
   <time name="total">   10.16   10.16</time>
   <energy>
    <i name="e_fr_energy">   -108.09625148 </i>
    <i name="e_wo_entrp">   -108.10429290 </i>
    <i name="e_0_energy">   -108.10027219 </i>
   </energy>
  </scstep>
  <scstep>
   <time name="total">   10.88   10.88</time>
   <energy>
    <i name="e_fr_energy">   -108.11879080 </i>
    <i name="e_wo_entrp">   -108.12637950 </i>
    <i name="e_0_energy">   -108.12258515 </i>
   </energy>
  </scstep>
  <scstep>
   <time name="total">   10.72   10.75</time>
   <energy>
    <i name="e_fr_energy">   -108.12517648 </i>
    <i name="e_wo_entrp">   -108.13295884 </i>
    <i name="e_0_energy">   -108.12906766 </i>
   </energy>
  </scstep>
  <scstep>
   <time name="total">   10.79   10.79</time>
   <energy>
    <i name="e_fr_energy">   -108.13804545 </i>
    <i name="e_wo_entrp">   -108.14575237 </i>
    <i name="e_0_energy">   -108.14189891 </i>
   </energy>
  </scstep>
  <scstep>
   <time name="total">   10.58   10.58</time>
   <energy>
    <i name="e_fr_energy">   -108.14257891 </i>
    <i name="e_wo_entrp">   -108.15030621 </i>
    <i name="e_0_energy">   -108.14644256 </i>
   </energy>
  </scstep>
  <scstep>
   <time name="total">   11.15   11.22</time>
   <energy>
    <i name="e_fr_energy">   -108.14414258 </i>
    <i name="e_wo_entrp">   -108.15187548 </i>
    <i name="e_0_energy">   -108.14800903 </i>
   </energy>
  </scstep>
  <scstep>
   <time name="total">   12.55   12.55</time>
   <energy>
    <i name="e_fr_energy">   -116.57568736 </i>
    <i name="e_wo_entrp">   -116.57474346 </i>
    <i name="e_0_energy">   -116.57521541 </i>
   </energy>
  </scstep>
  <scstep>
   <time name="total">   10.67   10.67</time>
   <energy>
    <i name="e_fr_energy">   -110.79059210 </i>
    <i name="e_wo_entrp">   -110.78964821 </i>
    <i name="e_0_energy">   -110.79012016 </i>
   </energy>
  </scstep>
  <scstep>
   <time name="total">   10.38   10.41</time>
   <energy>
    <i name="e_fr_energy">   -111.32074873 </i>
    <i name="e_wo_entrp">   -111.32373280 </i>
    <i name="e_0_energy">   -111.32224076 </i>
   </energy>
  </scstep>
  <scstep>
   <time name="total">   10.07   10.07</time>
   <energy>
    <i name="e_fr_energy">   -110.28842136 </i>
    <i name="e_wo_entrp">   -110.28850747 </i>
    <i name="e_0_energy">   -110.28846441 </i>
   </energy>
  </scstep>
  <scstep>
   <time name="total">   10.48   10.49</time>
   <energy>
    <i name="e_fr_energy">   -110.25396280 </i>
    <i name="e_wo_entrp">   -110.25321331 </i>
    <i name="e_0_energy">   -110.25358805 </i>
   </energy>
  </scstep>
  <scstep>
   <time name="total">   10.14   10.16</time>
   <energy>
    <i name="e_fr_energy">   -109.99083896 </i>
    <i name="e_wo_entrp">   -109.99151820 </i>
    <i name="e_0_energy">   -109.99117858 </i>
   </energy>
  </scstep>
  <scstep>
   <time name="total">   10.64   10.65</time>
   <energy>
    <i name="e_fr_energy">   -109.99365829 </i>
    <i name="e_wo_entrp">   -109.99365716 </i>
    <i name="e_0_energy">   -109.99365772 </i>
   </energy>
  </scstep>
  <scstep>
   <time name="total">   10.80   10.80</time>
   <energy>
    <i name="e_fr_energy">   -110.00505876 </i>
    <i name="e_wo_entrp">   -110.00527928 </i>
    <i name="e_0_energy">   -110.00516902 </i>
   </energy>
  </scstep>
  <scstep>
   <time name="total">   10.47   10.50</time>
   <energy>
    <i name="e_fr_energy">   -110.01376463 </i>
    <i name="e_wo_entrp">   -110.01388713 </i>
    <i name="e_0_energy">   -110.01382588 </i>
   </energy>
  </scstep>
  <scstep>
   <time name="total">   10.46   10.46</time>
   <energy>
    <i name="e_fr_energy">   -110.01283885 </i>
    <i name="e_wo_entrp">   -110.01311250 </i>
    <i name="e_0_energy">   -110.01297568 </i>
   </energy>
  </scstep>
  <scstep>
   <time name="total">   12.32   12.33</time>
   <energy>
    <i name="e_fr_energy">   -111.74696130 </i>
    <i name="e_wo_entrp">   -111.76044610 </i>
    <i name="e_0_energy">   -111.75370370 </i>
   </energy>
  </scstep>
  <scstep>
   <time name="total">   10.44   10.55</time>
   <energy>
    <i name="e_fr_energy">   -108.85921637 </i>
    <i name="e_wo_entrp">   -108.87270117 </i>
    <i name="e_0_energy">   -108.86595877 </i>
   </energy>
  </scstep>
  <scstep>
   <time name="total">   10.39   10.40</time>
   <energy>
    <i name="e_fr_energy">   -109.23092698 </i>
    <i name="e_wo_entrp">   -109.23617684 </i>
    <i name="e_0_energy">   -109.23355191 </i>
   </energy>
  </scstep>
  <scstep>
   <time name="total">   10.17   10.18</time>
   <energy>
    <i name="e_fr_energy">   -108.63617909 </i>
    <i name="e_wo_entrp">   -108.64716952 </i>
    <i name="e_0_energy">   -108.64167430 </i>
   </energy>
  </scstep>
  <scstep>
   <time name="total">   10.52   10.63</time>
   <energy>
    <i name="e_fr_energy">   -108.57796255 </i>
    <i name="e_wo_entrp">   -108.58698072 </i>
    <i name="e_0_energy">   -108.58247164 </i>
   </energy>
  </scstep>
  <scstep>
   <time name="total">   10.23   10.23</time>
   <energy>
    <i name="e_fr_energy">   -108.45971230 </i>
    <i name="e_wo_entrp">   -108.47045827 </i>
    <i name="e_0_energy">   -108.46508529 </i>
   </energy>
  </scstep>
  <scstep>
   <time name="total">   11.16   11.21</time>
   <energy>
    <i name="e_fr_energy">   -108.48555920 </i>
    <i name="e_wo_entrp">   -108.49608198 </i>
    <i name="e_0_energy">   -108.49082059 </i>
   </energy>
  </scstep>
  <scstep>
   <time name="total">   10.63   10.74</time>
   <energy>
    <i name="e_fr_energy">   -108.49480610 </i>
    <i name="e_wo_entrp">   -108.50532056 </i>
    <i name="e_0_energy">   -108.50006333 </i>
   </energy>
  </scstep>
  <scstep>
   <time name="total">   10.77   10.77</time>
   <energy>
    <i name="e_fr_energy">   -108.50961353 </i>
    <i name="e_wo_entrp">   -108.52009729 </i>
    <i name="e_0_energy">   -108.51485541 </i>
   </energy>
  </scstep>
  <scstep>
   <time name="total">   10.72   10.73</time>
   <energy>
    <i name="e_fr_energy">   -108.51547476 </i>
    <i name="e_wo_entrp">   -108.52605004 </i>
    <i name="e_0_energy">   -108.52076240 </i>
   </energy>
  </scstep>
  <scstep>
   <time name="total">   10.78   10.89</time>
   <energy>
    <i name="e_fr_energy">   -108.51663345 </i>
    <i name="e_wo_entrp">   -108.52714577 </i>
    <i name="e_0_energy">   -108.52188961 </i>
   </energy>
  </scstep>
  <scstep>
   <time name="total">   12.12   12.12</time>
   <energy>
    <i name="e_fr_energy">   -111.37120540 </i>
    <i name="e_wo_entrp">   -111.37478795 </i>
    <i name="e_0_energy">   -111.37299668 </i>
   </energy>
  </scstep>
  <scstep>
   <time name="total">   10.46   10.47</time>
   <energy>
    <i name="e_fr_energy">   -108.31368653 </i>
    <i name="e_wo_entrp">   -108.31726908 </i>
    <i name="e_0_energy">   -108.31547781 </i>
   </energy>
  </scstep>
  <scstep>
   <time name="total">   10.38   10.49</time>
   <energy>
    <i name="e_fr_energy">   -108.47457815 </i>
    <i name="e_wo_entrp">   -108.47825449 </i>
    <i name="e_0_energy">   -108.47641632 </i>
   </energy>
  </scstep>
  <scstep>
   <time name="total">   10.16   10.16</time>
   <energy>
    <i name="e_fr_energy">   -108.19209131 </i>
    <i name="e_wo_entrp">   -108.19569268 </i>
    <i name="e_0_energy">   -108.19389199 </i>
   </energy>
  </scstep>
  <scstep>
   <time name="total">   10.67   10.67</time>
   <energy>
    <i name="e_fr_energy">   -108.15782533 </i>
    <i name="e_wo_entrp">   -108.16030882 </i>
    <i name="e_0_energy">   -108.15906707 </i>
   </energy>
  </scstep>
  <scstep>
   <time name="total">   10.08   10.19</time>
   <energy>
    <i name="e_fr_energy">   -108.06769828 </i>
    <i name="e_wo_entrp">   -108.07129376 </i>
    <i name="e_0_energy">   -108.06949602 </i>
   </energy>
  </scstep>
  <scstep>
   <time name="total">   10.80   10.80</time>
   <energy>
    <i name="e_fr_energy">   -108.09033720 </i>
    <i name="e_wo_entrp">   -108.09349190 </i>
    <i name="e_0_energy">   -108.09191455 </i>
   </energy>
  </scstep>
  <scstep>
   <time name="total">   10.71   10.71</time>
   <energy>
    <i name="e_fr_energy">   -108.09679512 </i>
    <i name="e_wo_entrp">   -108.10026962 </i>
    <i name="e_0_energy">   -108.09853237 </i>
   </energy>
  </scstep>
  <scstep>
   <time name="total">   10.87   10.98</time>
   <energy>
    <i name="e_fr_energy">   -108.10900037 </i>
    <i name="e_wo_entrp">   -108.11241590 </i>
    <i name="e_0_energy">   -108.11070813 </i>
   </energy>
  </scstep>
  <scstep>
   <time name="total">   10.71   10.71</time>
   <energy>
    <i name="e_fr_energy">   -108.11341426 </i>
    <i name="e_wo_entrp">   -108.11684906 </i>
    <i name="e_0_energy">   -108.11513166 </i>
   </energy>
  </scstep>
  <scstep>
   <time name="total">   10.87   10.88</time>
   <energy>
    <i name="e_fr_energy">   -108.11504205 </i>
    <i name="e_wo_entrp">   -108.11844582 </i>
    <i name="e_0_energy">   -108.11674394 </i>
   </energy>
  </scstep>
  <scstep>
   <time name="total">   12.52   12.63</time>
   <energy>
    <i name="e_fr_energy">   -116.38147506 </i>
    <i name="e_wo_entrp">   -116.37949536 </i>
    <i name="e_0_energy">   -116.38048521 </i>
   </energy>
  </scstep>
  <scstep>
   <time name="total">   10.82   10.85</time>
   <energy>
    <i name="e_fr_energy">   -110.67884850 </i>
    <i name="e_wo_entrp">   -110.67686881 </i>
    <i name="e_0_energy">   -110.67785866 </i>
   </energy>
  </scstep>
  <scstep>
   <time name="total">   10.68   10.69</time>
   <energy>
    <i name="e_fr_energy">   -111.26696208 </i>
    <i name="e_wo_entrp">   -111.27434439 </i>
    <i name="e_0_energy">   -111.27065324 </i>
   </energy>
  </scstep>
  <scstep>
   <time name="total">    9.96   10.07</time>
   <energy>
    <i name="e_fr_energy">   -110.19982527 </i>
    <i name="e_wo_entrp">   -110.20050995 </i>
    <i name="e_0_energy">   -110.20016761 </i>
   </energy>
  </scstep>
  <scstep>
   <time name="total">   10.41   10.42</time>
   <energy>
    <i name="e_fr_energy">   -110.23134188 </i>
    <i name="e_wo_entrp">   -110.23003682 </i>
    <i name="e_0_energy">   -110.23068935 </i>
   </energy>
  </scstep>
  <scstep>
   <time name="total">   10.19   10.19</time>
   <energy>
    <i name="e_fr_energy">   -109.89221154 </i>
    <i name="e_wo_entrp">   -109.89292718 </i>
    <i name="e_0_energy">   -109.89256936 </i>
   </energy>
  </scstep>
  <scstep>
   <time name="total">   10.67   10.71</time>
   <energy>
    <i name="e_fr_energy">   -109.90085979 </i>
    <i name="e_wo_entrp">   -109.90069260 </i>
    <i name="e_0_energy">   -109.90077620 </i>
   </energy>
  </scstep>
  <scstep>
   <time name="total">   10.69   10.69</time>
   <energy>
    <i name="e_fr_energy">   -109.91011720 </i>
    <i name="e_wo_entrp">   -109.91060532 </i>
    <i name="e_0_energy">   -109.91036126 </i>
   </energy>
  </scstep>
  <scstep>
   <time name="total">   10.53   10.53</time>
   <energy>
    <i name="e_fr_energy">   -109.91969289 </i>
    <i name="e_wo_entrp">   -109.91991158 </i>
    <i name="e_0_energy">   -109.91980223 </i>
   </energy>
  </scstep>
  <scstep>
   <time name="total">   10.50   10.54</time>
   <energy>
    <i name="e_fr_energy">   -109.91970124 </i>
    <i name="e_wo_entrp">   -109.92023834 </i>
    <i name="e_0_energy">   -109.91996979 </i>
   </energy>
  </scstep>
  <scstep>
   <time name="total">   12.42   12.42</time>
   <energy>
    <i name="e_fr_energy">   -112.91917519 </i>
    <i name="e_wo_entrp">   -112.91195865 </i>
    <i name="e_0_energy">   -112.91556692 </i>
   </energy>
  </scstep>
  <scstep>
   <time name="total">   10.71   10.71</time>
   <energy>
    <i name="e_fr_energy">   -107.81100173 </i>
    <i name="e_wo_entrp">   -107.80378518 </i>
    <i name="e_0_energy">   -107.80739346 </i>
   </energy>
  </scstep>
  <scstep>
   <time name="total">   10.56   10.60</time>
   <energy>
    <i name="e_fr_energy">   -107.99088574 </i>
    <i name="e_wo_entrp">   -107.98733551 </i>
    <i name="e_0_energy">   -107.98911063 </i>
   </energy>
  </scstep>
  <scstep>
   <time name="total">   10.25   10.26</time>
   <energy>
    <i name="e_fr_energy">   -107.68658839 </i>
    <i name="e_wo_entrp">   -107.68080986 </i>
    <i name="e_0_energy">   -107.68369913 </i>
   </energy>
  </scstep>
  <scstep>
   <time name="total">   10.67   10.67</time>
   <energy>
    <i name="e_fr_energy">   -107.59124980 </i>
    <i name="e_wo_entrp">   -107.58597565 </i>
    <i name="e_0_energy">   -107.58861273 </i>
   </energy>
  </scstep>
  <scstep>
   <time name="total">   10.29   10.33</time>
   <energy>
    <i name="e_fr_energy">   -107.54021501 </i>
    <i name="e_wo_entrp">   -107.53463934 </i>
    <i name="e_0_energy">   -107.53742718 </i>
   </energy>
  </scstep>
  <scstep>
   <time name="total">   10.75   10.75</time>
   <energy>
    <i name="e_fr_energy">   -107.55995522 </i>
    <i name="e_wo_entrp">   -107.55464046 </i>
    <i name="e_0_energy">   -107.55729784 </i>
   </energy>
  </scstep>
  <scstep>
   <time name="total">   16.77   16.95</time>
   <energy>
    <i name="e_fr_energy">   -107.56535852 </i>
    <i name="e_wo_entrp">   -107.55985976 </i>
    <i name="e_0_energy">   -107.56260914 </i>
   </energy>
  </scstep>
  <scstep>
   <time name="total">   17.21   18.83</time>
   <energy>
    <i name="e_fr_energy">   -107.57695633 </i>
    <i name="e_wo_entrp">   -107.57159480 </i>
    <i name="e_0_energy">   -107.57427557 </i>
   </energy>
  </scstep>
  <scstep>
   <time name="total">   10.89   11.10</time>
   <energy>
    <i name="e_fr_energy">   -107.57856151 </i>
    <i name="e_wo_entrp">   -107.57306407 </i>
    <i name="e_0_energy">   -107.57581279 </i>
   </energy>
  </scstep>
  <scstep>
   <time name="total">   11.39   11.42</time>
   <energy>
    <i name="e_fr_energy">   -111.29940839 </i>
    <i name="e_wo_entrp">   -111.28833260 </i>
    <i name="e_0_energy">   -111.29387050 </i>
   </energy>
  </scstep>
  <scstep>
   <time name="total">    9.68    9.69</time>
   <energy>
    <i name="e_fr_energy">   -108.24977270 </i>
    <i name="e_wo_entrp">   -108.23869691 </i>
    <i name="e_0_energy">   -108.24423480 </i>
   </energy>
  </scstep>
  <scstep>
   <time name="total">    9.77    9.77</time>
   <energy>
    <i name="e_fr_energy">   -108.48772809 </i>
    <i name="e_wo_entrp">   -108.48091428 </i>
    <i name="e_0_energy">   -108.48432119 </i>
   </energy>
  </scstep>
  <scstep>
   <time name="total">    9.52    9.54</time>
   <energy>
    <i name="e_fr_energy">   -108.17668964 </i>
    <i name="e_wo_entrp">   -108.16771892 </i>
    <i name="e_0_energy">   -108.17220428 </i>
   </energy>
  </scstep>
  <scstep>
   <time name="total">    9.91    9.92</time>
   <energy>
    <i name="e_fr_energy">   -108.12530197 </i>
    <i name="e_wo_entrp">   -108.11471015 </i>
    <i name="e_0_energy">   -108.12000606 </i>
   </energy>
  </scstep>
  <scstep>
   <time name="total">    9.61    9.63</time>
   <energy>
    <i name="e_fr_energy">   -108.07854983 </i>
    <i name="e_wo_entrp">   -108.07044095 </i>
    <i name="e_0_energy">   -108.07449539 </i>
   </energy>
  </scstep>
  <scstep>
   <time name="total">   10.11   10.13</time>
   <energy>
    <i name="e_fr_energy">   -108.09769063 </i>
    <i name="e_wo_entrp">   -108.08896740 </i>
    <i name="e_0_energy">   -108.09332902 </i>
   </energy>
  </scstep>
  <scstep>
   <time name="total">    9.84    9.85</time>
   <energy>
    <i name="e_fr_energy">   -108.10394290 </i>
    <i name="e_wo_entrp">   -108.09543206 </i>
    <i name="e_0_energy">   -108.09968748 </i>
   </energy>
  </scstep>
  <scstep>
   <time name="total">   10.10   10.13</time>
   <energy>
    <i name="e_fr_energy">   -108.11855823 </i>
    <i name="e_wo_entrp">   -108.10995331 </i>
    <i name="e_0_energy">   -108.11425577 </i>
   </energy>
  </scstep>
  <scstep>
   <time name="total">    9.88    9.91</time>
   <energy>
    <i name="e_fr_energy">   -108.12196189 </i>
    <i name="e_wo_entrp">   -108.11333472 </i>
    <i name="e_0_energy">   -108.11764831 </i>
   </energy>
  </scstep>
  <scstep>
   <time name="total">   10.07   10.08</time>
   <energy>
    <i name="e_fr_energy">   -108.12338209 </i>
    <i name="e_wo_entrp">   -108.11472385 </i>
    <i name="e_0_energy">   -108.11905297 </i>
   </energy>
  </scstep>
  <scstep>
   <time name="total">   11.48   11.49</time>
   <energy>
    <i name="e_fr_energy">   -117.17969052 </i>
    <i name="e_wo_entrp">   -117.18251229 </i>
    <i name="e_0_energy">   -117.18110140 </i>
   </energy>
  </scstep>
  <scstep>
   <time name="total">    9.86    9.86</time>
   <energy>
    <i name="e_fr_energy">   -110.99384337 </i>
    <i name="e_wo_entrp">   -110.99666514 </i>
    <i name="e_0_energy">   -110.99525426 </i>
   </energy>
  </scstep>
  <scstep>
   <time name="total">    9.84    9.86</time>
   <energy>
    <i name="e_fr_energy">   -111.61918749 </i>
    <i name="e_wo_entrp">   -111.62182648 </i>
    <i name="e_0_energy">   -111.62050699 </i>
   </energy>
  </scstep>
  <scstep>
   <time name="total">    9.40    9.41</time>
   <energy>
    <i name="e_fr_energy">   -110.60703779 </i>
    <i name="e_wo_entrp">   -110.60747339 </i>
    <i name="e_0_energy">   -110.60725559 </i>
   </energy>
  </scstep>
  <scstep>
   <time name="total">    9.61    9.61</time>
   <energy>
    <i name="e_fr_energy">   -110.76607684 </i>
    <i name="e_wo_entrp">   -110.77063501 </i>
    <i name="e_0_energy">   -110.76835592 </i>
   </energy>
  </scstep>
  <scstep>
   <time name="total">    9.58    9.58</time>
   <energy>
    <i name="e_fr_energy">   -110.34226584 </i>
    <i name="e_wo_entrp">   -110.34311114 </i>
    <i name="e_0_energy">   -110.34268849 </i>
   </energy>
  </scstep>
  <scstep>
   <time name="total">   10.07   10.11</time>
   <energy>
    <i name="e_fr_energy">   -110.34620784 </i>
    <i name="e_wo_entrp">   -110.34688692 </i>
    <i name="e_0_energy">   -110.34654738 </i>
   </energy>
  </scstep>
  <scstep>
   <time name="total">    9.95    9.95</time>
   <energy>
    <i name="e_fr_energy">   -110.35179394 </i>
    <i name="e_wo_entrp">   -110.35240684 </i>
    <i name="e_0_energy">   -110.35210039 </i>
   </energy>
  </scstep>
  <scstep>
   <time name="total">    9.80    9.80</time>
   <energy>
    <i name="e_fr_energy">   -110.35377967 </i>
    <i name="e_wo_entrp">   -110.35500059 </i>
    <i name="e_0_energy">   -110.35439013 </i>
   </energy>
  </scstep>
  <scstep>
   <time name="total">   11.59   11.61</time>
   <energy>
    <i name="e_fr_energy">   -112.65533372 </i>
    <i name="e_wo_entrp">   -112.65557834 </i>
    <i name="e_0_energy">   -112.65545603 </i>
   </energy>
  </scstep>
  <scstep>
   <time name="total">    9.84    9.85</time>
   <energy>
    <i name="e_fr_energy">   -107.72837771 </i>
    <i name="e_wo_entrp">   -107.72862233 </i>
    <i name="e_0_energy">   -107.72850002 </i>
   </energy>
  </scstep>
  <scstep>
   <time name="total">    9.71    9.71</time>
   <energy>
    <i name="e_fr_energy">   -107.95084074 </i>
    <i name="e_wo_entrp">   -107.95011067 </i>
    <i name="e_0_energy">   -107.95047571 </i>
   </energy>
  </scstep>
  <scstep>
   <time name="total">    9.52    9.52</time>
   <energy>
    <i name="e_fr_energy">   -107.64613816 </i>
    <i name="e_wo_entrp">   -107.64612750 </i>
    <i name="e_0_energy">   -107.64613283 </i>
   </energy>
  </scstep>
  <scstep>
   <time name="total">   10.04   10.08</time>
   <energy>
    <i name="e_fr_energy">   -107.53280760 </i>
    <i name="e_wo_entrp">   -107.53280635 </i>
    <i name="e_0_energy">   -107.53280697 </i>
   </energy>
  </scstep>
  <scstep>
   <time name="total">    9.85    9.85</time>
   <energy>
    <i name="e_fr_energy">   -107.54985775 </i>
    <i name="e_wo_entrp">   -107.54958929 </i>
    <i name="e_0_energy">   -107.54972352 </i>
   </energy>
  </scstep>
  <scstep>
   <time name="total">    9.83    9.83</time>
   <energy>
    <i name="e_fr_energy">   -107.55199781 </i>
    <i name="e_wo_entrp">   -107.55202939 </i>
    <i name="e_0_energy">   -107.55201360 </i>
   </energy>
  </scstep>
  <scstep>
   <time name="total">   11.38   11.38</time>
   <energy>
    <i name="e_fr_energy">   -111.39135397 </i>
    <i name="e_wo_entrp">   -111.38773328 </i>
    <i name="e_0_energy">   -111.38954362 </i>
   </energy>
  </scstep>
  <scstep>
   <time name="total">    9.71    9.75</time>
   <energy>
    <i name="e_fr_energy">   -108.06377341 </i>
    <i name="e_wo_entrp">   -108.06015272 </i>
    <i name="e_0_energy">   -108.06196306 </i>
   </energy>
  </scstep>
  <scstep>
   <time name="total">    9.70    9.70</time>
   <energy>
    <i name="e_fr_energy">   -108.48140184 </i>
    <i name="e_wo_entrp">   -108.48642391 </i>
    <i name="e_0_energy">   -108.48391287 </i>
   </energy>
  </scstep>
  <scstep>
   <time name="total">    9.54    9.54</time>
   <energy>
    <i name="e_fr_energy">   -108.04956842 </i>
    <i name="e_wo_entrp">   -108.04843539 </i>
    <i name="e_0_energy">   -108.04900191 </i>
   </energy>
  </scstep>
  <scstep>
   <time name="total">    9.91    9.95</time>
   <energy>
    <i name="e_fr_energy">   -108.04298719 </i>
    <i name="e_wo_entrp">   -108.04300582 </i>
    <i name="e_0_energy">   -108.04299650 </i>
   </energy>
  </scstep>
  <scstep>
   <time name="total">    9.68    9.68</time>
   <energy>
    <i name="e_fr_energy">   -108.02122786 </i>
    <i name="e_wo_entrp">   -108.02029210 </i>
    <i name="e_0_energy">   -108.02075998 </i>
   </energy>
  </scstep>
  <scstep>
   <time name="total">    9.92    9.92</time>
   <energy>
    <i name="e_fr_energy">   -108.03265823 </i>
    <i name="e_wo_entrp">   -108.03188181 </i>
    <i name="e_0_energy">   -108.03227002 </i>
   </energy>
  </scstep>
  <scstep>
   <time name="total">   10.06   10.09</time>
   <energy>
    <i name="e_fr_energy">   -108.03943165 </i>
    <i name="e_wo_entrp">   -108.03881668 </i>
    <i name="e_0_energy">   -108.03912417 </i>
   </energy>
  </scstep>
  <scstep>
   <time name="total">    9.93    9.93</time>
   <energy>
    <i name="e_fr_energy">   -108.04967616 </i>
    <i name="e_wo_entrp">   -108.04891519 </i>
    <i name="e_0_energy">   -108.04929568 </i>
   </energy>
  </scstep>
  <scstep>
   <time name="total">    9.97    9.97</time>
   <energy>
    <i name="e_fr_energy">   -108.05215521 </i>
    <i name="e_wo_entrp">   -108.05144954 </i>
    <i name="e_0_energy">   -108.05180238 </i>
   </energy>
  </scstep>
  <scstep>
   <time name="total">   12.15   12.18</time>
   <energy>
    <i name="e_fr_energy">   -116.90501688 </i>
    <i name="e_wo_entrp">   -116.91897289 </i>
    <i name="e_0_energy">   -116.91199489 </i>
   </energy>
  </scstep>
  <scstep>
   <time name="total">    9.82    9.85</time>
   <energy>
    <i name="e_fr_energy">   -110.52630807 </i>
    <i name="e_wo_entrp">   -110.54026409 </i>
    <i name="e_0_energy">   -110.53328608 </i>
   </energy>
  </scstep>
  <scstep>
   <time name="total">    9.66    9.66</time>
   <energy>
    <i name="e_fr_energy">   -111.05241952 </i>
    <i name="e_wo_entrp">   -111.04105616 </i>
    <i name="e_0_energy">   -111.04673784 </i>
   </energy>
  </scstep>
  <scstep>
   <time name="total">    9.53    9.54</time>
   <energy>
    <i name="e_fr_energy">   -110.13765573 </i>
    <i name="e_wo_entrp">   -110.14429123 </i>
    <i name="e_0_energy">   -110.14097348 </i>
   </energy>
  </scstep>
  <scstep>
   <time name="total">    9.67    9.70</time>
   <energy>
    <i name="e_fr_energy">   -110.25341666 </i>
    <i name="e_wo_entrp">   -110.25729847 </i>
    <i name="e_0_energy">   -110.25535756 </i>
   </energy>
  </scstep>
  <scstep>
   <time name="total">    9.49    9.49</time>
   <energy>
    <i name="e_fr_energy">   -109.88274445 </i>
    <i name="e_wo_entrp">   -109.88818837 </i>
    <i name="e_0_energy">   -109.88546641 </i>
   </energy>
  </scstep>
  <scstep>
   <time name="total">   10.07   10.07</time>
   <energy>
    <i name="e_fr_energy">   -109.88989762 </i>
    <i name="e_wo_entrp">   -109.89453990 </i>
    <i name="e_0_energy">   -109.89221876 </i>
   </energy>
  </scstep>
  <scstep>
   <time name="total">    9.94    9.97</time>
   <energy>
    <i name="e_fr_energy">   -109.89629598 </i>
    <i name="e_wo_entrp">   -109.90093447 </i>
    <i name="e_0_energy">   -109.89861522 </i>
   </energy>
  </scstep>
  <scstep>
   <time name="total">    9.83    9.83</time>
   <energy>
    <i name="e_fr_energy">   -109.90115241 </i>
    <i name="e_wo_entrp">   -109.90579703 </i>
    <i name="e_0_energy">   -109.90347472 </i>
   </energy>
  </scstep>
  <scstep>
   <time name="total">    9.79    9.79</time>
   <energy>
    <i name="e_fr_energy">   -109.89808727 </i>
    <i name="e_wo_entrp">   -109.90279643 </i>
    <i name="e_0_energy">   -109.90044185 </i>
   </energy>
  </scstep>
  <scstep>
   <time name="total">   10.00   10.04</time>
   <energy>
    <i name="e_fr_energy">   -109.89644237 </i>
    <i name="e_wo_entrp">   -109.90119148 </i>
    <i name="e_0_energy">   -109.89881693 </i>
   </energy>
  </scstep>
  <scstep>
   <time name="total">   11.43   11.45</time>
   <energy>
    <i name="e_fr_energy">   -111.99347632 </i>
    <i name="e_wo_entrp">   -111.99651649 </i>
    <i name="e_0_energy">   -111.99499640 </i>
   </energy>
  </scstep>
  <scstep>
   <time name="total">    9.70    9.70</time>
   <energy>
    <i name="e_fr_energy">   -107.62487824 </i>
    <i name="e_wo_entrp">   -107.62791841 </i>
    <i name="e_0_energy">   -107.62639833 </i>
   </energy>
  </scstep>
  <scstep>
   <time name="total">    9.81    9.82</time>
   <energy>
    <i name="e_fr_energy">   -107.76625314 </i>
    <i name="e_wo_entrp">   -107.77154933 </i>
    <i name="e_0_energy">   -107.76890123 </i>
   </energy>
  </scstep>
  <scstep>
   <time name="total">    9.54    9.58</time>
   <energy>
    <i name="e_fr_energy">   -107.48864151 </i>
    <i name="e_wo_entrp">   -107.49157177 </i>
    <i name="e_0_energy">   -107.49010664 </i>
   </energy>
  </scstep>
  <scstep>
   <time name="total">    9.88    9.88</time>
   <energy>
    <i name="e_fr_energy">   -107.38606928 </i>
    <i name="e_wo_entrp">   -107.38742324 </i>
    <i name="e_0_energy">   -107.38674626 </i>
   </energy>
  </scstep>
  <scstep>
   <time name="total">    9.58    9.59</time>
   <energy>
    <i name="e_fr_energy">   -107.31825126 </i>
    <i name="e_wo_entrp">   -107.32206604 </i>
    <i name="e_0_energy">   -107.32015865 </i>
   </energy>
  </scstep>
  <scstep>
   <time name="total">   10.00   10.00</time>
   <energy>
    <i name="e_fr_energy">   -107.34019336 </i>
    <i name="e_wo_entrp">   -107.34309842 </i>
    <i name="e_0_energy">   -107.34164589 </i>
   </energy>
  </scstep>
  <scstep>
   <time name="total">   10.00   10.03</time>
   <energy>
    <i name="e_fr_energy">   -107.34575496 </i>
    <i name="e_wo_entrp">   -107.34894565 </i>
    <i name="e_0_energy">   -107.34735031 </i>
   </energy>
  </scstep>
  <scstep>
   <time name="total">   10.08   10.09</time>
   <energy>
    <i name="e_fr_energy">   -107.35926918 </i>
    <i name="e_wo_entrp">   -107.36242455 </i>
    <i name="e_0_energy">   -107.36084687 </i>
   </energy>
  </scstep>
  <scstep>
   <time name="total">   10.01   10.01</time>
   <energy>
    <i name="e_fr_energy">   -107.36123333 </i>
    <i name="e_wo_entrp">   -107.36435686 </i>
    <i name="e_0_energy">   -107.36279509 </i>
   </energy>
  </scstep>
  <scstep>
   <time name="total">   11.35   11.35</time>
   <energy>
    <i name="e_fr_energy">   -111.11708792 </i>
    <i name="e_wo_entrp">   -111.10567539 </i>
    <i name="e_0_energy">   -111.11138166 </i>
   </energy>
  </scstep>
  <scstep>
   <time name="total">    9.74    9.76</time>
   <energy>
    <i name="e_fr_energy">   -108.28741191 </i>
    <i name="e_wo_entrp">   -108.27599937 </i>
    <i name="e_0_energy">   -108.28170564 </i>
   </energy>
  </scstep>
  <scstep>
   <time name="total">    9.68    9.69</time>
   <energy>
    <i name="e_fr_energy">   -108.56483354 </i>
    <i name="e_wo_entrp">   -108.55329444 </i>
    <i name="e_0_energy">   -108.55906399 </i>
   </energy>
  </scstep>
  <scstep>
   <time name="total">    9.43    9.43</time>
   <energy>
    <i name="e_fr_energy">   -108.20432460 </i>
    <i name="e_wo_entrp">   -108.19369217 </i>
    <i name="e_0_energy">   -108.19900839 </i>
   </energy>
  </scstep>
  <scstep>
   <time name="total">    9.90    9.93</time>
   <energy>
    <i name="e_fr_energy">   -108.11659838 </i>
    <i name="e_wo_entrp">   -108.10738710 </i>
    <i name="e_0_energy">   -108.11199274 </i>
   </energy>
  </scstep>
  <scstep>
   <time name="total">    9.62    9.63</time>
   <energy>
    <i name="e_fr_energy">   -108.10559748 </i>
    <i name="e_wo_entrp">   -108.09569903 </i>
    <i name="e_0_energy">   -108.10064826 </i>
   </energy>
  </scstep>
  <scstep>
   <time name="total">   10.02   10.02</time>
   <energy>
    <i name="e_fr_energy">   -108.12074868 </i>
    <i name="e_wo_entrp">   -108.11085793 </i>
    <i name="e_0_energy">   -108.11580331 </i>
   </energy>
  </scstep>
  <scstep>
   <time name="total">    9.87    9.89</time>
   <energy>
    <i name="e_fr_energy">   -108.12799088 </i>
    <i name="e_wo_entrp">   -108.11806118 </i>
    <i name="e_0_energy">   -108.12302603 </i>
   </energy>
  </scstep>
  <scstep>
   <time name="total">    9.89    9.90</time>
   <energy>
    <i name="e_fr_energy">   -108.14126799 </i>
    <i name="e_wo_entrp">   -108.13140495 </i>
    <i name="e_0_energy">   -108.13633647 </i>
   </energy>
  </scstep>
  <scstep>
   <time name="total">    9.94    9.95</time>
   <energy>
    <i name="e_fr_energy">   -108.14320927 </i>
    <i name="e_wo_entrp">   -108.13318555 </i>
    <i name="e_0_energy">   -108.13819741 </i>
   </energy>
  </scstep>
  <scstep>
   <time name="total">   11.62   11.62</time>
   <energy>
    <i name="e_fr_energy">   -116.56508697 </i>
    <i name="e_wo_entrp">   -116.57521875 </i>
    <i name="e_0_energy">   -116.57015286 </i>
   </energy>
  </scstep>
  <scstep>
   <time name="total">    9.84    9.87</time>
   <energy>
    <i name="e_fr_energy">   -110.74888584 </i>
    <i name="e_wo_entrp">   -110.75901763 </i>
    <i name="e_0_energy">   -110.75395174 </i>
   </energy>
  </scstep>
  <scstep>
   <time name="total">    9.68    9.69</time>
   <energy>
    <i name="e_fr_energy">   -111.41051032 </i>
    <i name="e_wo_entrp">   -111.41381252 </i>
    <i name="e_0_energy">   -111.41216142 </i>
   </energy>
  </scstep>
  <scstep>
   <time name="total">    9.43    9.43</time>
   <energy>
    <i name="e_fr_energy">   -110.40206982 </i>
    <i name="e_wo_entrp">   -110.40739520 </i>
    <i name="e_0_energy">   -110.40473251 </i>
   </energy>
  </scstep>
  <scstep>
   <time name="total">    9.67    9.69</time>
   <energy>
    <i name="e_fr_energy">   -110.49389325 </i>
    <i name="e_wo_entrp">   -110.50456873 </i>
    <i name="e_0_energy">   -110.49923099 </i>
   </energy>
  </scstep>
  <scstep>
[...]
       <r>    0.7844    0.0000 </r>
       <r>    0.8447    0.0000 </r>
       <r>    0.9154    0.0000 </r>
       <r>    0.9727    0.0000 </r>
       <r>    1.0347    0.0000 </r>
       <r>    1.0838    0.0000 </r>
       <r>    1.1072    0.0000 </r>
       <r>    1.1892    0.0000 </r>
       <r>    1.2175    0.0000 </r>
       <r>    1.2608    0.0000 </r>
       <r>    1.4223    0.0000 </r>
       <r>    1.4471    0.0000 </r>
       <r>    1.4918    0.0000 </r>
       <r>    1.5231    0.0000 </r>
       <r>    1.5535    0.0000 </r>
       <r>    1.5940    0.0000 </r>
       <r>    1.6108    0.0000 </r>
       <r>    1.6862    0.0000 </r>
       <r>    1.7305    0.0000 </r>
       <r>    1.7755    0.0000 </r>
       <r>    1.8041    0.0000 </r>
       <r>    1.8246    0.0000 </r>
       <r>    1.8517    0.0000 </r>
       <r>    1.9039    0.0000 </r>
       <r>    1.9571    0.0000 </r>
       <r>    1.9906    0.0000 </r>
       <r>    2.0310    0.0000 </r>
       <r>    2.0807    0.0000 </r>
       <r>    2.1195    0.0000 </r>
       <r>    2.1667    0.0000 </r>
       <r>    2.2050    0.0000 </r>
       <r>    2.2334    0.0000 </r>
       <r>    2.3236    0.0000 </r>
      </set>
     </set>
    </set>
   </array>
  </eigenvalues>
  <separator name="orbital magnetization" >
   <v name="MAGDIPOLOUT">      0.00000000      0.00000000      0.00000000</v>
  </separator>
  <dos>
   <i name="efermi">     -0.01518674 </i>
   <total>
    <array>
     <dimension dim="1">gridpoints</dimension>
     <dimension dim="2">spin</dimension>
     <field>energy</field>
     <field>total</field>
     <field>integrated</field>
     <set>
      <set comment="spin 1">
       <r>   -13.3691     0.0000     0.0000 </r>
       <r>   -13.3143     0.0000     0.0000 </r>
       <r>   -13.2595     0.0000     0.0000 </r>
       <r>   -13.2047     0.0000     0.0000 </r>
       <r>   -13.1499     0.0000     0.0000 </r>
       <r>   -13.0951     0.0000     0.0000 </r>
       <r>   -13.0403     0.0000     0.0000 </r>
       <r>   -12.9855     0.0000     0.0000 </r>
       <r>   -12.9307     0.0000     0.0000 </r>
       <r>   -12.8759     0.0000     0.0000 </r>
       <r>   -12.8211     0.0000     0.0000 </r>
       <r>   -12.7663     0.0002     0.0000 </r>
       <r>   -12.7115     0.0505     0.0028 </r>
       <r>   -12.6567     1.4625     0.0829 </r>
       <r>   -12.6019     6.6496     0.4473 </r>
       <r>   -12.5471    11.2524     1.0639 </r>
       <r>   -12.4923    10.5594     1.6426 </r>
       <r>   -12.4375     5.9107     1.9665 </r>
       <r>   -12.3827     4.8873     2.2343 </r>
       <r>   -12.3279    11.0902     2.8421 </r>
       <r>   -12.2731    11.5906     3.4772 </r>
       <r>   -12.2183     7.4931     3.8879 </r>
       <r>   -12.1635     7.1444     4.2794 </r>
       <r>   -12.1087    12.3123     4.9541 </r>
       <r>   -12.0539    18.8724     5.9883 </r>
       <r>   -11.9991     8.7039     6.4652 </r>
       <r>   -11.9443     2.8582     6.6219 </r>
       <r>   -11.8895    14.0391     7.3912 </r>
       <r>   -11.8347    18.9324     8.4287 </r>
       <r>   -11.7799    15.0063     9.2511 </r>
       <r>   -11.7251    15.6985    10.1113 </r>
       <r>   -11.6703    17.6795    11.0802 </r>
       <r>   -11.6155    16.1447    11.9649 </r>
       <r>   -11.5607    25.8647    13.3823 </r>
       <r>   -11.5059    31.7901    15.1244 </r>
       <r>   -11.4511    32.1996    16.8889 </r>
       <r>   -11.3963    32.3048    18.6592 </r>
       <r>   -11.3415    30.9366    20.3545 </r>
       <r>   -11.2867    28.7989    21.9327 </r>
       <r>   -11.2319    28.6406    23.5022 </r>
       <r>   -11.1771    26.8271    24.9723 </r>
       <r>   -11.1223    29.9525    26.6137 </r>
       <r>   -11.0675    36.2602    28.6007 </r>
       <r>   -11.0127    38.4462    30.7076 </r>
       <r>   -10.9579    39.6179    32.8786 </r>
       <r>   -10.9031    38.2268    34.9735 </r>
       <r>   -10.8483    45.8627    37.4867 </r>
       <r>   -10.7935    41.0218    39.7347 </r>
       <r>   -10.7387    41.2510    41.9953 </r>
       <r>   -10.6839    41.3107    44.2591 </r>
       <r>   -10.6291    32.7405    46.0532 </r>
       <r>   -10.5743    24.8503    47.4150 </r>
       <r>   -10.5195    27.1688    48.9039 </r>
       <r>   -10.4647    25.9116    50.3238 </r>
       <r>   -10.4099    22.8243    51.5746 </r>
       <r>   -10.3551    35.0042    53.4928 </r>
       <r>   -10.3003    41.0970    55.7449 </r>
       <r>   -10.2455    27.1780    57.2343 </r>
       <r>   -10.1907    11.9288    57.8880 </r>
       <r>   -10.1359     1.9896    57.9970 </r>
       <r>   -10.0811     0.0546    58.0000 </r>
       <r>   -10.0263     0.0002    58.0000 </r>
       <r>    -9.9715     0.0000    58.0000 </r>
       <r>    -9.9167     0.0000    58.0000 </r>
       <r>    -9.8619     0.0000    58.0000 </r>
       <r>    -9.8071     0.0000    58.0000 </r>
       <r>    -9.7523     0.0000    58.0000 </r>
       <r>    -9.6975     0.0000    58.0000 </r>
       <r>    -9.6427     0.0000    58.0000 </r>
       <r>    -9.5879     0.0000    58.0000 </r>
       <r>    -9.5331     0.0000    58.0000 </r>
       <r>    -9.4783     0.0000    58.0000 </r>
       <r>    -9.4235     0.0000    58.0000 </r>
       <r>    -9.3687     0.0000    58.0000 </r>
       <r>    -9.3139     0.0000    58.0000 </r>
       <r>    -9.2591     0.0000    58.0000 </r>
       <r>    -9.2043     0.0000    58.0000 </r>
       <r>    -9.1495     0.0000    58.0000 </r>
       <r>    -9.0947     0.0000    58.0000 </r>
       <r>    -9.0399     0.0000    58.0000 </r>
       <r>    -8.9851     0.0000    58.0000 </r>
       <r>    -8.9303     0.0000    58.0000 </r>
       <r>    -8.8755     0.0000    58.0000 </r>
       <r>    -8.8207     0.0000    58.0000 </r>
       <r>    -8.7659     0.0000    58.0000 </r>
       <r>    -8.7111     0.0000    58.0000 </r>
       <r>    -8.6563     0.0000    58.0000 </r>
       <r>    -8.6015     0.0000    58.0000 </r>
       <r>    -8.5467     0.0000    58.0000 </r>
       <r>    -8.4919     0.0000    58.0000 </r>
       <r>    -8.4371     0.0000    58.0000 </r>
       <r>    -8.3823     0.0000    58.0000 </r>
       <r>    -8.3275     0.0000    58.0000 </r>
       <r>    -8.2727     0.0000    58.0000 </r>
       <r>    -8.2179     0.0000    58.0000 </r>
       <r>    -8.1631     0.0000    58.0000 </r>
       <r>    -8.1083     0.0000    58.0000 </r>
       <r>    -8.0535     0.0000    58.0000 </r>
       <r>    -7.9987     0.0000    58.0000 </r>
       <r>    -7.9439     0.0000    58.0000 </r>
       <r>    -7.8891     0.0000    58.0000 </r>
       <r>    -7.8343     0.0000    58.0000 </r>
       <r>    -7.7795     0.0000    58.0000 </r>
       <r>    -7.7247     0.0000    58.0000 </r>
       <r>    -7.6699     0.0000    58.0000 </r>
       <r>    -7.6151     0.0000    58.0000 </r>
       <r>    -7.5603     0.0000    58.0000 </r>
       <r>    -7.5055     0.0000    58.0000 </r>
       <r>    -7.4507     0.0000    58.0000 </r>
       <r>    -7.3959     0.0000    58.0000 </r>
       <r>    -7.3411     0.0000    58.0000 </r>
       <r>    -7.2863     0.0000    58.0000 </r>
       <r>    -7.2315     0.0000    58.0000 </r>
       <r>    -7.1767     0.0000    58.0000 </r>
       <r>    -7.1219     0.0000    58.0000 </r>
       <r>    -7.0671     0.0000    58.0000 </r>
       <r>    -7.0123     0.0000    58.0000 </r>
       <r>    -6.9575     0.0000    58.0000 </r>
       <r>    -6.9027     0.0000    58.0000 </r>
       <r>    -6.8479     0.0000    58.0000 </r>
       <r>    -6.7931     0.0000    58.0000 </r>
       <r>    -6.7383     0.0000    58.0000 </r>
       <r>    -6.6835     0.0000    58.0000 </r>
       <r>    -6.6287     0.0000    58.0000 </r>
       <r>    -6.5739     0.0000    58.0000 </r>
       <r>    -6.5191     0.0000    58.0000 </r>
       <r>    -6.4643     0.0000    58.0000 </r>
       <r>    -6.4095     0.0000    58.0000 </r>
       <r>    -6.3547     0.0000    58.0000 </r>
       <r>    -6.2999     0.0000    58.0000 </r>
       <r>    -6.2451     0.0000    58.0000 </r>
       <r>    -6.1903     0.0000    58.0000 </r>
       <r>    -6.1355     0.0000    58.0000 </r>
       <r>    -6.0807     0.0000    58.0000 </r>
       <r>    -6.0259     0.0000    58.0000 </r>
       <r>    -5.9711     0.0000    58.0000 </r>
       <r>    -5.9163     0.0000    58.0000 </r>
       <r>    -5.8615     0.0000    58.0000 </r>
       <r>    -5.8067     0.0000    58.0000 </r>
       <r>    -5.7519     0.0000    58.0000 </r>
       <r>    -5.6971     0.0000    58.0000 </r>
       <r>    -5.6423     0.0024    58.0001 </r>
       <r>    -5.5875     0.2403    58.0133 </r>
       <r>    -5.5327     2.9691    58.1760 </r>
       <r>    -5.4779     6.7369    58.5452 </r>
       <r>    -5.4231    11.0587    59.1512 </r>
       <r>    -5.3683    16.0893    60.0329 </r>
       <r>    -5.3135    14.8837    60.8485 </r>
       <r>    -5.2587    16.8134    61.7699 </r>
       <r>    -5.2039    13.9811    62.5361 </r>
       <r>    -5.1491     9.4870    63.0559 </r>
       <r>    -5.0943    13.8281    63.8137 </r>
       <r>    -5.0395    18.1388    64.8077 </r>
       <r>    -4.9847    20.2503    65.9174 </r>
       <r>    -4.9299    22.8205    67.1680 </r>
       <r>    -4.8751    23.5611    68.4591 </r>
       <r>    -4.8203    25.4079    69.8515 </r>
       <r>    -4.7655    29.1606    71.4495 </r>
       <r>    -4.7107    42.2537    73.7650 </r>
       <r>    -4.6559    45.2246    76.2433 </r>
       <r>    -4.6011    42.2243    78.5571 </r>
       <r>    -4.5463    41.9673    80.8569 </r>
       <r>    -4.4915    42.4445    83.1829 </r>
       <r>    -4.4367    41.4062    85.4519 </r>
       <r>    -4.3819    42.4697    87.7793 </r>
       <r>    -4.3271    44.9849    90.2444 </r>
       <r>    -4.2723    46.0543    92.7682 </r>
       <r>    -4.2175    38.7903    94.8939 </r>
       <r>    -4.1627    32.6992    96.6858 </r>
       <r>    -4.1079    33.9115    98.5442 </r>
       <r>    -4.0531    37.9047   100.6213 </r>
       <r>    -3.9983    37.1996   102.6598 </r>
       <r>    -3.9435    37.6823   104.7248 </r>
       <r>    -3.8887    39.1606   106.8708 </r>
       <r>    -3.8339    30.1134   108.5210 </r>
       <r>    -3.7791    34.4262   110.4076 </r>
       <r>    -3.7243    45.1678   112.8828 </r>
       <r>    -3.6695    37.3666   114.9304 </r>
       <r>    -3.6147    40.6527   117.1582 </r>
       <r>    -3.5599    39.9552   119.3477 </r>
       <r>    -3.5051    36.5860   121.3526 </r>
       <r>    -3.4503    39.0527   123.4927 </r>
       <r>    -3.3955    43.7625   125.8909 </r>
       <r>    -3.3407    43.7283   128.2872 </r>
       <r>    -3.2859    40.9940   130.5337 </r>
       <r>    -3.2311    39.0419   132.6731 </r>
       <r>    -3.1763    38.4903   134.7824 </r>
       <r>    -3.1215    34.8196   136.6905 </r>
       <r>    -3.0667    36.0867   138.6681 </r>
       <r>    -3.0119    37.5624   140.7265 </r>
       <r>    -2.9571    43.5741   143.1143 </r>
       <r>    -2.9023    51.0255   145.9105 </r>
       <r>    -2.8475    49.9612   148.6484 </r>
       <r>    -2.7927    46.4257   151.1925 </r>
       <r>    -2.7379    46.1080   153.7192 </r>
       <r>    -2.6831    43.6682   156.1122 </r>
       <r>    -2.6283    39.2791   158.2647 </r>
       <r>    -2.5735    46.1831   160.7955 </r>
       <r>    -2.5187    52.5398   163.6747 </r>
       <r>    -2.4639    51.0093   166.4700 </r>
       <r>    -2.4091    46.9443   169.0425 </r>
       <r>    -2.3543    43.7031   171.4374 </r>
       <r>    -2.2995    43.9287   173.8447 </r>
       <r>    -2.2447    45.2431   176.3240 </r>
       <r>    -2.1899    46.6067   178.8781 </r>
       <r>    -2.1351    51.9024   181.7223 </r>
       <r>    -2.0803    46.8707   184.2908 </r>
       <r>    -2.0255    39.0166   186.4289 </r>
       <r>    -1.9707    47.7892   189.0478 </r>
       <r>    -1.9159    50.8963   191.8369 </r>
       <r>    -1.8611    49.7532   194.5633 </r>
       <r>    -1.8063    44.1588   196.9832 </r>
       <r>    -1.7515    42.6824   199.3222 </r>
       <r>    -1.6967    53.8762   202.2746 </r>
       <r>    -1.6419    61.8346   205.6631 </r>
       <r>    -1.5871    56.1269   208.7389 </r>
       <r>    -1.5323    47.3679   211.3346 </r>
       <r>    -1.4775    48.7846   214.0080 </r>
       <r>    -1.4227    47.0729   216.5876 </r>
       <r>    -1.3679    48.6626   219.2543 </r>
       <r>    -1.3131    55.2132   222.2800 </r>
       <r>    -1.2583    59.5945   225.5457 </r>
       <r>    -1.2035    55.1801   228.5696 </r>
       <r>    -1.1487    52.2028   231.4303 </r>
       <r>    -1.0939    53.0142   234.3355 </r>
       <r>    -1.0391    54.2975   237.3109 </r>
       <r>    -0.9843    45.7292   239.8169 </r>
       <r>    -0.9295    48.3522   242.4666 </r>
       <r>    -0.8747    49.7182   245.1911 </r>
       <r>    -0.8199    48.6231   247.8557 </r>
       <r>    -0.7651    45.6081   250.3550 </r>
       <r>    -0.7103    46.2746   252.8908 </r>
       <r>    -0.6555    41.7548   255.1790 </r>
       <r>    -0.6007    33.3334   257.0056 </r>
       <r>    -0.5459    32.7555   258.8006 </r>
       <r>    -0.4911    27.0232   260.2815 </r>
       <r>    -0.4363    26.5424   261.7360 </r>
       <r>    -0.3815    27.5500   263.2458 </r>
       <r>    -0.3267    23.9276   264.5570 </r>
       <r>    -0.2719    17.4305   265.5122 </r>
       <r>    -0.2171    15.0030   266.3343 </r>
       <r>    -0.1623    18.0512   267.3235 </r>
       <r>    -0.1075    20.5076   268.4473 </r>
       <r>    -0.0527    19.9655   269.5414 </r>
       <r>     0.0021    11.2707   270.1591 </r>
       <r>     0.0569    10.6098   270.7405 </r>
       <r>     0.1117    11.5853   271.3754 </r>
       <r>     0.1665    10.3533   271.9427 </r>
       <r>     0.2213    13.7845   272.6981 </r>
       <r>     0.2761    27.0144   274.1785 </r>
       <r>     0.3309    27.0311   275.6598 </r>
       <r>     0.3857    25.5814   277.0616 </r>
       <r>     0.4405    23.0034   278.3222 </r>
       <r>     0.4953    21.9651   279.5259 </r>
       <r>     0.5501    23.1445   280.7942 </r>
       <r>     0.6049    17.9775   281.7794 </r>
       <r>     0.6597    24.0378   283.0967 </r>
       <r>     0.7145    32.0729   284.8542 </r>
       <r>     0.7693    35.1653   286.7813 </r>
       <r>     0.8241    29.2427   288.3838 </r>
       <r>     0.8789    31.6378   290.1175 </r>
       <r>     0.9337    37.8740   292.1930 </r>
       <r>     0.9885    40.9256   294.4357 </r>
       <r>     1.0433    40.6750   296.6647 </r>
       <r>     1.0981    38.0513   298.7499 </r>
       <r>     1.1529    32.5119   300.5316 </r>
       <r>     1.2077    30.0654   302.1791 </r>
       <r>     1.2625    37.3945   304.2283 </r>
       <r>     1.3173    28.9390   305.8142 </r>
       <r>     1.3721    22.5218   307.0484 </r>
       <r>     1.4269    26.0979   308.4785 </r>
       <r>     1.4817    35.5373   310.4260 </r>
       <r>     1.5365    47.3958   313.0232 </r>
       <r>     1.5913    57.5064   316.1746 </r>
       <r>     1.6461    52.6862   319.0618 </r>
       <r>     1.7009    40.6488   321.2893 </r>
       <r>     1.7557    38.7775   323.4143 </r>
       <r>     1.8105    47.7299   326.0299 </r>
       <r>     1.8653    58.1448   329.2162 </r>
       <r>     1.9201    58.0084   332.3951 </r>
       <r>     1.9749    56.1586   335.4726 </r>
       <r>     2.0297    52.3605   338.3419 </r>
       <r>     2.0845    51.9455   341.1885 </r>
       <r>     2.1393    52.5242   344.0668 </r>
       <r>     2.1941    53.1605   346.9800 </r>
       <r>     2.2489    46.4596   349.5260 </r>
       <r>     2.3037    29.9593   351.1677 </r>
       <r>     2.3585    13.2350   351.8930 </r>
       <r>     2.4133     1.9054   351.9974 </r>
       <r>     2.4681     0.0466   352.0000 </r>
       <r>     2.5229     0.0001   352.0000 </r>
       <r>     2.5777     0.0000   352.0000 </r>
       <r>     2.6325     0.0000   352.0000 </r>
       <r>     2.6873     0.0000   352.0000 </r>
       <r>     2.7421     0.0000   352.0000 </r>
       <r>     2.7969     0.0000   352.0000 </r>
       <r>     2.8517     0.0000   352.0000 </r>
       <r>     2.9065     0.0000   352.0000 </r>
       <r>     2.9613     0.0000   352.0000 </r>
       <r>     3.0161     0.0000   352.0000 </r>
       <r>     3.0709     0.0000   352.0000 </r>
      </set>
     </set>
    </array>
   </total>
  </dos>
 </calculation>
 <structure name="finalpos" >
  <crystal>
   <varray name="basis" >
    <v>      13.80799961       0.00000000       0.00000000 </v>
    <v>       0.00000000      12.73600006       0.00000000 </v>
    <v>       0.00000000       0.00000000      16.00000000 </v>
   </varray>
   <i name="volume">   2813.73894219 </i>
   <varray name="rec_basis" >
    <v>       0.07242179       0.00000000       0.00000000 </v>
    <v>       0.00000000       0.07851759       0.00000000 </v>
    <v>       0.00000000       0.00000000       0.06250000 </v>
   </varray>
  </crystal>
  <varray name="positions" >
   <v>       0.62508010       0.04475266       0.62732065 </v>
   <v>       0.35626280       0.05551761       0.62661404 </v>
   <v>       0.89882821       0.05032304       0.62330497 </v>
   <v>       0.12226673       0.55091631       0.63362853 </v>
   <v>       0.62647258       0.54862564       0.63114639 </v>
   <v>       0.37421544       0.54639722       0.63677914 </v>
   <v>       0.87555501       0.54937683       0.62852141 </v>
   <v>       0.13107324       0.38188158       0.40575591 </v>
   <v>       0.62196453       0.37335221       0.41085426 </v>
   <v>       0.37252981       0.38012706       0.40934243 </v>
   <v>       0.87607712       0.37550609       0.40780448 </v>
   <v>       0.13414522       0.86463849       0.39866510 </v>
   <v>       0.37794803       0.87189515       0.41142002 </v>
   <v>       0.86735094       0.87560442       0.40594522 </v>
   <v>       0.00115488       0.13156838       0.36146779 </v>
   <v>       0.49841546       0.12053975       0.37132296 </v>
   <v>       0.25299091       0.13209351       0.36348028 </v>
   <v>       0.75079986       0.12342450       0.37081851 </v>
   <v>       0.00907397       0.62916169       0.37300511 </v>
   <v>       0.48705930       0.63634591       0.38035356 </v>
   <v>       0.74365602       0.63543609       0.37390724 </v>
   <v>       0.00581389       0.30041341       0.59144857 </v>
   <v>       0.49856251       0.30145774       0.59246671 </v>
   <v>       0.24377367       0.30123801       0.59223924 </v>
   <v>       0.75262006       0.30102940       0.58980150 </v>
   <v>       0.00816161       0.80849295       0.58566610 </v>
   <v>       0.49583393       0.80599250       0.59591655 </v>
   <v>       0.23998439       0.81614098       0.59491941 </v>
   <v>       0.75334455       0.80582117       0.59333754 </v>
   <v>       0.12678462       0.17066753       0.48772689 </v>
   <v>       0.62371722       0.17398560       0.49342029 </v>
   <v>       0.37262514       0.18239878       0.49217243 </v>
   <v>       0.88078690       0.17942402       0.49012487 </v>
   <v>       0.13466026       0.67465954       0.49605007 </v>
   <v>       0.62320713       0.68216506       0.50150763 </v>
   <v>       0.36339679       0.68006819       0.50489359 </v>
   <v>       0.87506680       0.67895748       0.49361129 </v>
   <v>       0.01649156       0.99957102       0.49327543 </v>
   <v>       0.48731229       0.00058781       0.51026075 </v>
   <v>       0.23476835       0.00641596       0.49905568 </v>
   <v>       0.76182297       0.00284678       0.50937870 </v>
   <v>       0.00287210       0.49804801       0.50691780 </v>
   <v>       0.49790493       0.50031397       0.51070018 </v>
   <v>       0.24816654       0.50793742       0.51035560 </v>
   <v>       0.74940165       0.49824993       0.50571139 </v>
  </varray>
 </structure>
</modeling>
