<?xml version="1.0" encoding="ISO-8859-1"?>
<modeling>
 <generator>
  <i name="program" type="string">vasp </i>
  <i name="version" type="string">5.4.4.18Apr17-6-g9f103f2a35  </i>
  <i name="subversion" type="string">(build Nov 26 2018 16:29:41) complex            parallel </i>
  <i name="platform" type="string">LinuxIFC </i>
  <i name="date" type="string">2019 06 03 </i>
  <i name="time" type="string">12:55:58 </i>
 </generator>
 <incar>
  <i type="string" name="SYSTEM"> MoTe2</i>
  <i type="string" name="PREC">accurate</i>
  <i type="string" name="ALGO"> Normal</i>
  <i type="logical" name="ADDGRID"> T  </i>
  <i type="int" name="IBRION">    -1</i>
  <i name="EDIFF">      0.00001000</i>
  <i type="int" name="NSW">     0</i>
  <i type="int" name="ISYM">     0</i>
  <i name="ENCUT">    400.00000000</i>
  <i name="POTIM">      0.50000000</i>
  <i type="logical" name="LREAL"> F  </i>
  <i type="int" name="ISMEAR">     0</i>
  <i name="SIGMA">      0.05000000</i>
  <i type="int" name="NWRITE">     1</i>
  <i type="logical" name="LWAVE"> F  </i>
  <i type="logical" name="LCHARG"> T  </i>
  <i type="logical" name="LASPH"> T  </i>
  <v type="int" name="KPOINT_BSE">    -1     0     0     0</v>
  <i type="logical" name="LUSE_VDW"> T  </i>
  <i name="BPARAM">     15.70000000</i>
  <i type="string" name="METAGGA"> SCAN</i>
  <i type="logical" name="LASPH"> T  </i>
 </incar>
 <structure name="primitive_cell" >
  <crystal>
   <varray name="basis" >
    <v>       3.55100000       0.00000000       0.00000000 </v>
    <v>       0.00000000       6.14900000       0.00000000 </v>
    <v>       0.00000000       0.00000000      35.00000000 </v>
   </varray>
   <i name="volume">    764.22846500 </i>
   <varray name="rec_basis" >
    <v>       0.28161081       0.00000000       0.00000000 </v>
    <v>       0.00000000       0.16262807       0.00000000 </v>
    <v>       0.00000000       0.00000000       0.02857143 </v>
   </varray>
  </crystal>
  <varray name="positions" >
   <v>       0.00000000      -0.33331263       0.16062496 </v>
   <v>       0.00000000       0.00002280       0.10965813 </v>
   <v>      -0.50000000      -0.49997588       0.10966283 </v>
   <v>      -0.50000000       0.16666917       0.16062661 </v>
   <v>       0.00000000      -0.33333618       0.05883366 </v>
   <v>       0.00000000       0.33349109       0.27787705 </v>
   <v>      -0.50000000      -0.16681279       0.27787588 </v>
   <v>      -0.50000000       0.16667825       0.05883342 </v>
   <v>       0.00000000      -0.00011011       0.32872400 </v>
   <v>      -0.50000000       0.49995597       0.32885470 </v>
   <v>       0.00000000       0.33312661       0.37979062 </v>
   <v>      -0.50000000      -0.16648600       0.37981714 </v>
   <v>      -0.50000000      -0.49991029       0.49967442 </v>
  </varray>
 </structure>
 <varray name="primitive_index" >
  <v type="int" >        1 </v>
  <v type="int" >        9 </v>
  <v type="int" >       10 </v>
  <v type="int" >        3 </v>
  <v type="int" >        2 </v>
  <v type="int" >        6 </v>
  <v type="int" >        8 </v>
  <v type="int" >        4 </v>
  <v type="int" >       11 </v>
  <v type="int" >       12 </v>
  <v type="int" >        5 </v>
  <v type="int" >        7 </v>
  <v type="int" >       13 </v>
 </varray>
 <kpoints>
  <generation param="Monkhorst-Pack">
   <v type="int" name="divisions">      20       10        1 </v>
   <v name="usershift">      0.00000000       0.00000000       0.00000000 </v>
   <v name="genvec1">      0.05000000       0.00000000       0.00000000 </v>
   <v name="genvec2">      0.00000000       0.10000000       0.00000000 </v>
   <v name="genvec3">      0.00000000       0.00000000       1.00000000 </v>
   <v name="shift">      0.50000000       0.50000000       0.00000000 </v>
  </generation>
  <varray name="kpointlist" >
   <v>       0.02500000       0.05000000       0.00000000 </v>
   <v>       0.07500000       0.05000000       0.00000000 </v>
   <v>       0.12500000       0.05000000       0.00000000 </v>
   <v>       0.17500000       0.05000000       0.00000000 </v>
   <v>       0.22500000       0.05000000       0.00000000 </v>
   <v>       0.27500000       0.05000000       0.00000000 </v>
   <v>       0.32500000       0.05000000       0.00000000 </v>
   <v>       0.37500000       0.05000000       0.00000000 </v>
   <v>       0.42500000       0.05000000       0.00000000 </v>
   <v>       0.47500000       0.05000000       0.00000000 </v>
   <v>      -0.47500000       0.05000000       0.00000000 </v>
   <v>      -0.42500000       0.05000000       0.00000000 </v>
   <v>      -0.37500000       0.05000000       0.00000000 </v>
   <v>      -0.32500000       0.05000000       0.00000000 </v>
   <v>      -0.27500000       0.05000000       0.00000000 </v>
   <v>      -0.22500000       0.05000000       0.00000000 </v>
   <v>      -0.17500000       0.05000000       0.00000000 </v>
   <v>      -0.12500000       0.05000000       0.00000000 </v>
   <v>      -0.07500000       0.05000000       0.00000000 </v>
   <v>      -0.02500000       0.05000000       0.00000000 </v>
   <v>       0.02500000       0.15000000       0.00000000 </v>
   <v>       0.07500000       0.15000000       0.00000000 </v>
   <v>       0.12500000       0.15000000       0.00000000 </v>
   <v>       0.17500000       0.15000000       0.00000000 </v>
   <v>       0.22500000       0.15000000       0.00000000 </v>
   <v>       0.27500000       0.15000000       0.00000000 </v>
   <v>       0.32500000       0.15000000       0.00000000 </v>
   <v>       0.37500000       0.15000000       0.00000000 </v>
   <v>       0.42500000       0.15000000       0.00000000 </v>
   <v>       0.47500000       0.15000000       0.00000000 </v>
   <v>      -0.47500000       0.15000000       0.00000000 </v>
   <v>      -0.42500000       0.15000000       0.00000000 </v>
   <v>      -0.37500000       0.15000000       0.00000000 </v>
   <v>      -0.32500000       0.15000000       0.00000000 </v>
   <v>      -0.27500000       0.15000000       0.00000000 </v>
   <v>      -0.22500000       0.15000000       0.00000000 </v>
   <v>      -0.17500000       0.15000000       0.00000000 </v>
   <v>      -0.12500000       0.15000000       0.00000000 </v>
   <v>      -0.07500000       0.15000000       0.00000000 </v>
   <v>      -0.02500000       0.15000000       0.00000000 </v>
   <v>       0.02500000       0.25000000       0.00000000 </v>
   <v>       0.07500000       0.25000000       0.00000000 </v>
   <v>       0.12500000       0.25000000       0.00000000 </v>
   <v>       0.17500000       0.25000000       0.00000000 </v>
   <v>       0.22500000       0.25000000       0.00000000 </v>
   <v>       0.27500000       0.25000000       0.00000000 </v>
   <v>       0.32500000       0.25000000       0.00000000 </v>
   <v>       0.37500000       0.25000000       0.00000000 </v>
   <v>       0.42500000       0.25000000       0.00000000 </v>
   <v>       0.47500000       0.25000000       0.00000000 </v>
   <v>      -0.47500000       0.25000000       0.00000000 </v>
   <v>      -0.42500000       0.25000000       0.00000000 </v>
   <v>      -0.37500000       0.25000000       0.00000000 </v>
   <v>      -0.32500000       0.25000000       0.00000000 </v>
   <v>      -0.27500000       0.25000000       0.00000000 </v>
   <v>      -0.22500000       0.25000000       0.00000000 </v>
   <v>      -0.17500000       0.25000000       0.00000000 </v>
   <v>      -0.12500000       0.25000000       0.00000000 </v>
   <v>      -0.07500000       0.25000000       0.00000000 </v>
   <v>      -0.02500000       0.25000000       0.00000000 </v>
   <v>       0.02500000       0.35000000       0.00000000 </v>
   <v>       0.07500000       0.35000000       0.00000000 </v>
   <v>       0.12500000       0.35000000       0.00000000 </v>
   <v>       0.17500000       0.35000000       0.00000000 </v>
   <v>       0.22500000       0.35000000       0.00000000 </v>
   <v>       0.27500000       0.35000000       0.00000000 </v>
   <v>       0.32500000       0.35000000       0.00000000 </v>
   <v>       0.37500000       0.35000000       0.00000000 </v>
   <v>       0.42500000       0.35000000       0.00000000 </v>
   <v>       0.47500000       0.35000000       0.00000000 </v>
   <v>      -0.47500000       0.35000000       0.00000000 </v>
   <v>      -0.42500000       0.35000000       0.00000000 </v>
   <v>      -0.37500000       0.35000000       0.00000000 </v>
   <v>      -0.32500000       0.35000000       0.00000000 </v>
   <v>      -0.27500000       0.35000000       0.00000000 </v>
   <v>      -0.22500000       0.35000000       0.00000000 </v>
   <v>      -0.17500000       0.35000000       0.00000000 </v>
   <v>      -0.12500000       0.35000000       0.00000000 </v>
   <v>      -0.07500000       0.35000000       0.00000000 </v>
   <v>      -0.02500000       0.35000000       0.00000000 </v>
   <v>       0.02500000       0.45000000       0.00000000 </v>
   <v>       0.07500000       0.45000000       0.00000000 </v>
   <v>       0.12500000       0.45000000       0.00000000 </v>
   <v>       0.17500000       0.45000000       0.00000000 </v>
   <v>       0.22500000       0.45000000       0.00000000 </v>
   <v>       0.27500000       0.45000000       0.00000000 </v>
   <v>       0.32500000       0.45000000       0.00000000 </v>
   <v>       0.37500000       0.45000000       0.00000000 </v>
   <v>       0.42500000       0.45000000       0.00000000 </v>
   <v>       0.47500000       0.45000000       0.00000000 </v>
   <v>      -0.47500000       0.45000000       0.00000000 </v>
   <v>      -0.42500000       0.45000000       0.00000000 </v>
   <v>      -0.37500000       0.45000000       0.00000000 </v>
   <v>      -0.32500000       0.45000000       0.00000000 </v>
   <v>      -0.27500000       0.45000000       0.00000000 </v>
   <v>      -0.22500000       0.45000000       0.00000000 </v>
   <v>      -0.17500000       0.45000000       0.00000000 </v>
   <v>      -0.12500000       0.45000000       0.00000000 </v>
   <v>      -0.07500000       0.45000000       0.00000000 </v>
   <v>      -0.02500000       0.45000000       0.00000000 </v>
  </varray>
  <varray name="weights" >
   <v>       0.01000000 </v>
   <v>       0.01000000 </v>
   <v>       0.01000000 </v>
   <v>       0.01000000 </v>
   <v>       0.01000000 </v>
   <v>       0.01000000 </v>
   <v>       0.01000000 </v>
   <v>       0.01000000 </v>
   <v>       0.01000000 </v>
   <v>       0.01000000 </v>
   <v>       0.01000000 </v>
   <v>       0.01000000 </v>
   <v>       0.01000000 </v>
   <v>       0.01000000 </v>
   <v>       0.01000000 </v>
   <v>       0.01000000 </v>
   <v>       0.01000000 </v>
   <v>       0.01000000 </v>
   <v>       0.01000000 </v>
   <v>       0.01000000 </v>
   <v>       0.01000000 </v>
   <v>       0.01000000 </v>
   <v>       0.01000000 </v>
   <v>       0.01000000 </v>
   <v>       0.01000000 </v>
   <v>       0.01000000 </v>
   <v>       0.01000000 </v>
   <v>       0.01000000 </v>
   <v>       0.01000000 </v>
   <v>       0.01000000 </v>
   <v>       0.01000000 </v>
   <v>       0.01000000 </v>
   <v>       0.01000000 </v>
   <v>       0.01000000 </v>
   <v>       0.01000000 </v>
   <v>       0.01000000 </v>
   <v>       0.01000000 </v>
   <v>       0.01000000 </v>
   <v>       0.01000000 </v>
   <v>       0.01000000 </v>
   <v>       0.01000000 </v>
   <v>       0.01000000 </v>
   <v>       0.01000000 </v>
   <v>       0.01000000 </v>
   <v>       0.01000000 </v>
   <v>       0.01000000 </v>
   <v>       0.01000000 </v>
   <v>       0.01000000 </v>
   <v>       0.01000000 </v>
   <v>       0.01000000 </v>
   <v>       0.01000000 </v>
   <v>       0.01000000 </v>
   <v>       0.01000000 </v>
   <v>       0.01000000 </v>
   <v>       0.01000000 </v>
   <v>       0.01000000 </v>
   <v>       0.01000000 </v>
   <v>       0.01000000 </v>
   <v>       0.01000000 </v>
   <v>       0.01000000 </v>
   <v>       0.01000000 </v>
   <v>       0.01000000 </v>
   <v>       0.01000000 </v>
   <v>       0.01000000 </v>
   <v>       0.01000000 </v>
   <v>       0.01000000 </v>
   <v>       0.01000000 </v>
   <v>       0.01000000 </v>
   <v>       0.01000000 </v>
   <v>       0.01000000 </v>
   <v>       0.01000000 </v>
   <v>       0.01000000 </v>
   <v>       0.01000000 </v>
   <v>       0.01000000 </v>
   <v>       0.01000000 </v>
   <v>       0.01000000 </v>
   <v>       0.01000000 </v>
   <v>       0.01000000 </v>
   <v>       0.01000000 </v>
   <v>       0.01000000 </v>
   <v>       0.01000000 </v>
   <v>       0.01000000 </v>
   <v>       0.01000000 </v>
   <v>       0.01000000 </v>
   <v>       0.01000000 </v>
   <v>       0.01000000 </v>
   <v>       0.01000000 </v>
   <v>       0.01000000 </v>
   <v>       0.01000000 </v>
   <v>       0.01000000 </v>
   <v>       0.01000000 </v>
   <v>       0.01000000 </v>
   <v>       0.01000000 </v>
   <v>       0.01000000 </v>
   <v>       0.01000000 </v>
   <v>       0.01000000 </v>
   <v>       0.01000000 </v>
   <v>       0.01000000 </v>
   <v>       0.01000000 </v>
   <v>       0.01000000 </v>
  </varray>
 </kpoints>
 <parameters>
  <separator name="general" >
   <i type="string" name="SYSTEM">MoTe2</i>
   <i type="logical" name="LCOMPAT"> F  </i>
  </separator>
  <separator name="electronic" >
   <i type="string" name="PREC">accura</i>
   <i name="ENMAX">    400.00000000</i>
   <i name="ENAUG">    368.79200000</i>
   <i name="EDIFF">      0.00001000</i>
   <i type="int" name="IALGO">    38</i>
   <i type="int" name="IWAVPR">    10</i>
   <i type="int" name="NBANDS">    48</i>
   <i name="NELECT">     73.00000000</i>
   <i type="int" name="TURBO">     0</i>
   <i type="int" name="IRESTART">     0</i>
   <i type="int" name="NREBOOT">     0</i>
   <i type="int" name="NMIN">     0</i>
   <i name="EREF">      0.00000000</i>
   <separator name="electronic smearing" >
    <i type="int" name="ISMEAR">     0</i>
    <i name="SIGMA">      0.05000000</i>
    <i name="KSPACING">      0.50000000</i>
    <i type="logical" name="KGAMMA"> T  </i>
   </separator>
   <separator name="electronic projectors" >
    <i type="logical" name="LREAL"> F  </i>
    <v name="ROPT">      0.00000000      0.00000000      0.00000000</v>
    <i type="int" name="LMAXPAW">  -100</i>
    <i type="int" name="LMAXMIX">     2</i>
    <i type="logical" name="NLSPLINE"> F  </i>
   </separator>
   <separator name="electronic startup" >
    <i type="int" name="ISTART">     0</i>
    <i type="int" name="ICHARG">     2</i>
    <i type="int" name="INIWAV">     1</i>
   </separator>
   <separator name="electronic spin" >
    <i type="int" name="ISPIN">     1</i>
    <i type="logical" name="LNONCOLLINEAR"> F  </i>
    <v name="MAGMOM">      1.00000000      1.00000000      1.00000000      1.00000000      1.00000000      1.00000000      1.00000000      1.00000000      1.00000000      1.00000000      1.00000000      1.00000000      1.00000000</v>
    <i name="NUPDOWN">     -1.00000000</i>
    <i type="logical" name="LSORBIT"> F  </i>
    <v name="SAXIS">      0.00000000      0.00000000      1.00000000</v>
    <i type="logical" name="LSPIRAL"> F  </i>
    <v name="QSPIRAL">      0.00000000      0.00000000      0.00000000</v>
    <i type="logical" name="LZEROZ"> F  </i>
   </separator>
   <separator name="electronic exchange-correlation" >
    <i type="logical" name="LASPH"> T  </i>
    <i type="logical" name="LMETAGGA"> F  </i>
   </separator>
   <separator name="electronic convergence" >
    <i type="int" name="NELM">    60</i>
    <i type="int" name="NELMDL">    -5</i>
    <i type="int" name="NELMIN">     2</i>
    <i name="ENINI">    400.00000000</i>
    <separator name="electronic convergence detail" >
     <i type="logical" name="LDIAG"> T  </i>
     <i type="logical" name="LSUBROT"> F  </i>
     <i name="WEIMIN">      0.00000000</i>
     <i name="EBREAK">      0.00000005</i>
     <i name="DEPER">      0.30000000</i>
     <i type="int" name="NRMM">     4</i>
     <i name="TIME">      0.40000000</i>
    </separator>
   </separator>
   <separator name="electronic mixer" >
    <i name="AMIX">      0.40000000</i>
    <i name="BMIX">      1.00000000</i>
    <i name="AMIN">      0.10000000</i>
    <i name="AMIX_MAG">      1.60000000</i>
    <i name="BMIX_MAG">      1.00000000</i>
    <separator name="electronic mixer details" >
     <i type="int" name="IMIX">     4</i>
     <i type="logical" name="MIXFIRST"> F  </i>
     <i type="int" name="MAXMIX">   -45</i>
     <i name="WC">    100.00000000</i>
     <i type="int" name="INIMIX">     1</i>
     <i type="int" name="MIXPRE">     1</i>
     <i type="int" name="MREMOVE">     5</i>
    </separator>
   </separator>
   <separator name="electronic dipolcorrection" >
    <i type="logical" name="LDIPOL"> F  </i>
    <i type="logical" name="LMONO"> F  </i>
    <i type="int" name="IDIPOL">     0</i>
    <i name="EPSILON">      1.00000000</i>
    <v name="DIPOL">   -100.00000000   -100.00000000   -100.00000000</v>
    <i name="EFIELD">      0.00000000</i>
   </separator>
  </separator>
  <separator name="grids" >
   <i type="int" name="NGX">    24</i>
   <i type="int" name="NGY">    40</i>
   <i type="int" name="NGZ">   240</i>
   <i type="int" name="NGXF">    48</i>
   <i type="int" name="NGYF">    80</i>
   <i type="int" name="NGZF">   480</i>
   <i type="logical" name="ADDGRID"> T  </i>
  </separator>
  <separator name="ionic" >
   <i type="int" name="NSW">     0</i>
   <i type="int" name="IBRION">    -1</i>
   <i type="int" name="MDALGO">     0</i>
   <i type="int" name="ISIF">     2</i>
   <i name="PSTRESS">      0.00000000</i>
   <i name="EDIFFG">      0.00010000</i>
   <i type="int" name="NFREE">     0</i>
   <i name="POTIM">      0.50000000</i>
   <i name="SMASS">     -3.00000000</i>
   <i name="SCALEE">      1.00000000</i>
  </separator>
  <separator name="ionic md" >
   <i name="TEBEG">      0.00010000</i>
   <i name="TEEND">      0.00010000</i>
   <i type="int" name="NBLOCK">     1</i>
   <i type="int" name="KBLOCK">     1</i>
   <i type="int" name="NPACO">   256</i>
   <i name="APACO">     16.00000000</i>
  </separator>
  <separator name="symmetry" >
   <i type="int" name="ISYM">     0</i>
   <i name="SYMPREC">      0.00001000</i>
  </separator>
  <separator name="dos" >
   <i type="int" name="LORBIT">     0</i>
   <v name="RWIGS">     -1.00000000     -1.00000000     -1.00000000</v>
   <i type="int" name="NEDOS">   301</i>
   <i name="EMIN">     10.00000000</i>
   <i name="EMAX">    -10.00000000</i>
   <i name="EFERMI">      0.00000000</i>
  </separator>
  <separator name="writing" >
   <i type="int" name="NWRITE">     1</i>
   <i type="logical" name="LWAVE"> F  </i>
   <i type="logical" name="LDOWNSAMPLE"> F  </i>
   <i type="logical" name="LCHARG"> T  </i>
   <i type="logical" name="LPARD"> F  </i>
   <i type="logical" name="LVTOT"> F  </i>
   <i type="logical" name="LVHAR"> F  </i>
   <i type="logical" name="LELF"> F  </i>
   <i type="logical" name="LOPTICS"> F  </i>
   <v name="STM">      0.00000000      0.00000000      0.00000000      0.00000000      0.00000000      0.00000000      0.00000000</v>
  </separator>
  <separator name="performance" >
   <i type="int" name="NPAR">    16</i>
   <i type="int" name="NSIM">     4</i>
   <i type="int" name="NBLK">    -1</i>
   <i type="logical" name="LPLANE"> T  </i>
   <i type="logical" name="LSCALAPACK"> T  </i>
   <i type="logical" name="LSCAAWARE"> F  </i>
   <i type="logical" name="LSCALU"> F  </i>
   <i type="logical" name="LASYNC"> F  </i>
   <i type="logical" name="LORBITALREAL"> F  </i>
  </separator>
  <separator name="miscellaneous" >
   <i type="int" name="IDIOT">     3</i>
   <i type="int" name="ISPECIAL">     0</i>
   <i type="logical" name="LMUSIC"> F  </i>
   <v name="POMASS">    127.60000000     95.94000000      7.01000000</v>
   <v name="DARWINR">      0.00000000      0.00000000      0.00000000</v>
   <v name="DARWINV">      1.00000000      1.00000000      1.00000000</v>
   <i type="logical" name="LCORR"> T  </i>
  </separator>
  <i type="logical" name="GGA_COMPAT"> T  </i>
  <i type="logical" name="LBERRY"> F  </i>
  <i type="int" name="ICORELEVEL">     0</i>
  <i type="logical" name="LDAU"> F  </i>
  <i type="int" name="I_CONSTRAINED_M">     0</i>
  <separator name="electronic exchange-correlation" >
   <i type="string" name="GGA">--</i>
   <i type="int" name="VOSKOWN">     0</i>
   <i type="logical" name="LHFCALC"> F  </i>
   <i type="string" name="PRECFOCK"></i>
   <i type="logical" name="LSYMGRAD"> F  </i>
   <i type="logical" name="LHFONE"> F  </i>
   <i type="logical" name="LRHFCALC"> F  </i>
   <i type="logical" name="LTHOMAS"> F  </i>
   <i type="logical" name="LMODELHF"> F  </i>
   <i name="ENCUT4O">     -1.00000000</i>
   <i type="int" name="EXXOEP">     0</i>
   <i type="int" name="FOURORBIT">     0</i>
   <i name="AEXX">      0.00000000</i>
   <i name="HFALPHA">      0.00000000</i>
   <i name="MCALPHA">      0.00000000</i>
   <i name="ALDAX">      1.00000000</i>
   <i name="AGGAX">      1.00000000</i>
   <i name="ALDAC">      1.00000000</i>
   <i name="AGGAC">      1.00000000</i>
   <i type="int" name="NKREDX">     1</i>
   <i type="int" name="NKREDY">     1</i>
   <i type="int" name="NKREDZ">     1</i>
   <i type="logical" name="SHIFTRED"> F  </i>
   <i type="logical" name="ODDONLY"> F  </i>
   <i type="logical" name="EVENONLY"> F  </i>
   <i type="int" name="LMAXFOCK">     0</i>
   <i type="int" name="NMAXFOCKAE">     0</i>
   <i type="logical" name="LFOCKAEDFT"> F  </i>
   <i name="HFSCREEN">      0.00000000</i>
   <i name="HFSCREENC">      0.00000000</i>
   <i type="int" name="NBANDSGWLOW">     0</i>
  </separator>
  <separator name="vdW DFT" >
   <i type="logical" name="LUSE_VDW"> T  </i>
   <i name="Zab_VDW">     -0.84910000</i>
   <i name="PARAM1">      0.12340000</i>
   <i name="PARAM2">      1.00000000</i>
   <i name="PARAM3">      0.00000000</i>
  </separator>
  <separator name="model GW" >
   <i type="int" name="MODEL_GW">     0</i>
   <i name="MODEL_EPS0">     35.27208300</i>
   <i name="MODEL_ALPHA">      1.00000000</i>
  </separator>
  <separator name="linear response parameters" >
   <i type="logical" name="LEPSILON"> F  </i>
   <i type="logical" name="LRPA"> F  </i>
   <i type="logical" name="LNABLA"> F  </i>
   <i type="logical" name="LVEL"> F  </i>
   <i type="int" name="KINTER">     0</i>
   <i name="CSHIFT">      0.10000000</i>
   <i name="OMEGAMAX">     -1.00000000</i>
   <i name="DEG_THRESHOLD">      0.00200000</i>
   <i name="RTIME">     -0.10000000</i>
   <i name="WPLASMAI">      0.00000000</i>
   <v name="DFIELD">      0.00000000      0.00000000      0.00000000</v>
   <v name="WPLASMA">      0.00000000      0.00000000      0.00000000      0.00000000      0.00000000      0.00000000      0.00000000      0.00000000      0.00000000</v>
  </separator>
  <separator name="orbital magnetization" >
   <i type="logical" name="NUCIND"> F  </i>
   <v name="MAGPOS">      0.00000000      0.00000000      0.00000000</v>
   <i type="logical" name="LNICSALL"> T  </i>
   <i type="logical" name="ORBITALMAG"> F  </i>
   <i type="logical" name="LMAGBLOCH"> F  </i>
   <i type="logical" name="LCHIMAG"> F  </i>
   <i type="logical" name="LGAUGE"> T  </i>
   <i type="int" name="MAGATOM">     0</i>
   <v name="MAGDIPOL">      0.00000000      0.00000000      0.00000000</v>
   <v name="AVECCONST">      0.00000000      0.00000000      0.00000000</v>
  </separator>
  <separator name="response functions" >
   <i type="logical" name="LADDER"> F  </i>
   <i type="logical" name="LRPAFORCE"> F  </i>
   <i type="logical" name="LFXC"> F  </i>
   <i type="logical" name="LHARTREE"> T  </i>
   <i type="int" name="IBSE">     0</i>
   <v type="int" name="KPOINT">    -1     0     0     0</v>
   <i type="logical" name="LTCTE"> F  </i>
   <i type="logical" name="LTETE"> F  </i>
   <i type="logical" name="LTRIPLET"> F  </i>
   <i type="logical" name="LFXCEPS"> F  </i>
   <i type="logical" name="LFXHEG"> F  </i>
   <i type="int" name="NATURALO">     2</i>
   <i type="logical" name="L2ORDER"> F  </i>
   <i type="logical" name="LMP2LT"> F  </i>
   <i type="logical" name="LUSEW"> F  </i>
   <i name="ENCUTGW">     -2.00000000</i>
   <i name="ENCUTGWSOFT">     -2.00000000</i>
   <i name="ENCUTLF">     -1.00000000</i>
   <i type="int" name="LMAXMP2">    -1</i>
   <i name="SCISSOR">      0.00000000</i>
   <i type="int" name="NOMEGA">     0</i>
   <i type="int" name="NOMEGAR">     0</i>
   <i type="int" name="NBANDSGW">    -1</i>
   <i type="int" name="NBANDSO">    -1</i>
   <i type="int" name="NBANDSV">    -1</i>
   <i type="int" name="NELM">     1</i>
   <i type="int" name="NELMHF">     1</i>
   <i type="int" name="DIM">     3</i>
   <i type="int" name="ANTIRES">     0</i>
   <i name="OMEGAMAX">    -30.00000000</i>
   <i name="OMEGAMIN">    -30.00000000</i>
   <i name="OMEGATL">   -200.00000000</i>
   <i type="int" name="OMEGAGRID">   140</i>
   <i name="CSHIFT">     -0.10000000</i>
   <i type="logical" name="SELFENERGY"> F  </i>
   <i type="logical" name="LSPECTRAL"> F  </i>
   <i type="logical" name="LSPECTRALGW"> F  </i>
   <i type="logical" name="LSINGLES"> F  </i>
   <i type="logical" name="LFERMIGW"> F  </i>
   <i type="logical" name="ODDONLYGW"> F  </i>
   <i type="logical" name="EVENONLYGW"> F  </i>
   <i type="int" name="NKREDLFX">     1</i>
   <i type="int" name="NKREDLFY">     1</i>
   <i type="int" name="NKREDLFZ">     1</i>
   <i type="int" name="MAXMEM">  2800</i>
   <i type="int" name="TELESCOPE">     0</i>
   <i type="int" name="TAUPAR">     1</i>
   <i type="int" name="OMEGAPAR">    -1</i>
   <i name="LAMBDA">      1.00000000</i>
  </separator>
  <separator name="External order field" >
   <i name="OFIELD_KAPPA">      0.00000000</i>
   <v name="OFIELD_K">      0.00000000      0.00000000      0.00000000</v>
   <i name="OFIELD_Q6_NEAR">      0.00000000</i>
   <i name="OFIELD_Q6_FAR">      0.00000000</i>
   <i name="OFIELD_A">      0.00000000</i>
  </separator>
 </parameters>
 <atominfo>
  <atoms>      13 </atoms>
  <types>       3 </types>
  <array name="atoms" >
   <dimension dim="1">ion</dimension>
   <field type="string">element</field>
   <field type="int">atomtype</field>
   <set>
    <rc><c>Te</c><c>   1</c></rc>
    <rc><c>Te</c><c>   1</c></rc>
    <rc><c>Te</c><c>   1</c></rc>
    <rc><c>Te</c><c>   1</c></rc>
    <rc><c>Te</c><c>   1</c></rc>
    <rc><c>Te</c><c>   1</c></rc>
    <rc><c>Te</c><c>   1</c></rc>
    <rc><c>Te</c><c>   1</c></rc>
    <rc><c>Mo</c><c>   2</c></rc>
    <rc><c>Mo</c><c>   2</c></rc>
    <rc><c>Mo</c><c>   2</c></rc>
    <rc><c>Mo</c><c>   2</c></rc>
    <rc><c>Li</c><c>   3</c></rc>
   </set>
  </array>
  <array name="atomtypes" >
   <dimension dim="1">type</dimension>
   <field type="int">atomspertype</field>
   <field type="string">element</field>
   <field>mass</field>
   <field>valence</field>
   <field type="string">pseudopotential</field>
   <set>
    <rc><c>   8</c><c>Te</c><c>    127.60000000</c><c>      6.00000000</c><c>  PAW_PBE Te 08Apr2002                  </c></rc>
    <rc><c>   4</c><c>Mo</c><c>     95.94000000</c><c>      6.00000000</c><c>  PAW_PBE Mo 08Apr2002                  </c></rc>
    <rc><c>   1</c><c>Li</c><c>      7.01000000</c><c>      1.00000000</c><c>  PAW_PBE Li 17Jan2003                  </c></rc>
   </set>
  </array>
 </atominfo>
 <structure name="initialpos" >
  <crystal>
   <varray name="basis" >
    <v>       3.55100000       0.00000000       0.00000000 </v>
    <v>       0.00000000       6.14900000       0.00000000 </v>
    <v>       0.00000000       0.00000000      35.00000000 </v>
   </varray>
   <i name="volume">    764.22846500 </i>
   <varray name="rec_basis" >
    <v>       0.28161081       0.00000000       0.00000000 </v>
    <v>       0.00000000       0.16262807       0.00000000 </v>
    <v>       0.00000000       0.00000000       0.02857143 </v>
   </varray>
  </crystal>
  <varray name="positions" >
   <v>       0.00000000       0.66668737       0.16062496 </v>
   <v>       0.00000000       0.66666382       0.05883366 </v>
   <v>       0.50000000       0.16666917       0.16062661 </v>
   <v>       0.50000000       0.16667825       0.05883342 </v>
   <v>       0.00000000       0.33312661       0.37979062 </v>
   <v>       0.00000000       0.33349109       0.27787705 </v>
   <v>       0.50000000       0.83351400       0.37981714 </v>
   <v>       0.50000000       0.83318721       0.27787588 </v>
   <v>       0.00000000       0.00002280       0.10965813 </v>
   <v>       0.50000000       0.50002412       0.10966283 </v>
   <v>       0.00000000       0.99988989       0.32872400 </v>
   <v>       0.50000000       0.49995597       0.32885470 </v>
   <v>       0.50000000       0.50008971       0.49967442 </v>
  </varray>
 </structure>
 <calculation>
  <scstep>
   <time name="dav">    9.69    9.69</time>
   <time name="total">   11.60   11.62</time>
   <energy>
    <i name="alphaZ">     47.26979112 </i>
    <i name="ewald">  19291.42231796 </i>
    <i name="hartreedc"> -21836.45143142 </i>
    <i name="XCdc">   -359.51949372 </i>
    <i name="pawpsdc">   2639.71816464 </i>
    <i name="pawaedc">  -2476.57733713 </i>
    <i name="eentropy">     -0.00863806 </i>
    <i name="bandstr">     82.87565281 </i>
    <i name="atom">   2661.52855728 </i>
    <i name="e_fr_energy">     50.25758348 </i>
    <i name="e_wo_entrp">     50.26622155 </i>
    <i name="e_0_energy">     50.26190252 </i>
   </energy>
  </scstep>
  <scstep>
   <time name="dav">   12.18   12.18</time>
   <time name="total">   12.18   12.18</time>
   <energy>
    <i name="e_fr_energy">   -391.08983747 </i>
    <i name="e_wo_entrp">   -391.08423013 </i>
    <i name="e_0_energy">   -391.08703380 </i>
   </energy>
  </scstep>
  <scstep>
   <time name="dav">   11.11   11.14</time>
   <time name="total">   11.11   11.14</time>
   <energy>
    <i name="e_fr_energy">   -436.54162908 </i>
    <i name="e_wo_entrp">   -436.53040279 </i>
    <i name="e_0_energy">   -436.53601593 </i>
   </energy>
  </scstep>
  <scstep>
   <time name="dav">   12.89   12.89</time>
   <time name="total">   12.90   12.89</time>
   <energy>
    <i name="e_fr_energy">   -438.35749287 </i>
    <i name="e_wo_entrp">   -438.34695794 </i>
    <i name="e_0_energy">   -438.35222540 </i>
   </energy>
  </scstep>
  <scstep>
   <time name="dav">   11.35   11.36</time>
   <time name="total">   12.33   12.36</time>
   <energy>
    <i name="e_fr_energy">   -438.39065128 </i>
    <i name="e_wo_entrp">   -438.38016823 </i>
    <i name="e_0_energy">   -438.38540976 </i>
   </energy>
  </scstep>
  <scstep>
   <time name="dav">   11.65   11.65</time>
   <time name="total">   14.31   14.31</time>
   <energy>
    <i name="e_fr_energy">   -442.30872872 </i>
    <i name="e_wo_entrp">   -442.30014814 </i>
    <i name="e_0_energy">   -442.30443843 </i>
   </energy>
  </scstep>
  <scstep>
   <time name="dav">   13.54   13.54</time>
   <time name="total">   16.18   16.21</time>
   <energy>
    <i name="e_fr_energy">   -456.57490408 </i>
    <i name="e_wo_entrp">   -456.56090880 </i>
    <i name="e_0_energy">   -456.56790644 </i>
   </energy>
  </scstep>
  <scstep>
   <time name="dav">   13.20   13.20</time>
   <time name="total">   15.84   15.84</time>
   <energy>
    <i name="e_fr_energy">   -449.84250235 </i>
    <i name="e_wo_entrp">   -449.82469979 </i>
    <i name="e_0_energy">   -449.83360107 </i>
   </energy>
  </scstep>
  <scstep>
   <time name="dav">   12.20   12.37</time>
   <time name="total">   14.85   15.02</time>
   <energy>
    <i name="e_fr_energy">   -441.47935136 </i>
    <i name="e_wo_entrp">   -441.46836301 </i>
    <i name="e_0_energy">   -441.47385718 </i>
   </energy>
  </scstep>
  <scstep>
   <time name="dav">   11.08   11.07</time>
   <time name="total">   13.74   13.77</time>
   <energy>
    <i name="e_fr_energy">   -440.40592845 </i>
    <i name="e_wo_entrp">   -440.39440284 </i>
    <i name="e_0_energy">   -440.40016564 </i>
   </energy>
  </scstep>
  <scstep>
   <time name="dav">   11.29   11.29</time>
   <time name="total">   13.95   13.95</time>
   <energy>
    <i name="e_fr_energy">   -440.25857031 </i>
    <i name="e_wo_entrp">   -440.25533389 </i>
    <i name="e_0_energy">   -440.25695210 </i>
   </energy>
  </scstep>
  <scstep>
   <time name="dav">   10.94   10.97</time>
   <time name="total">   13.58   13.61</time>
   <energy>
    <i name="e_fr_energy">   -440.30730101 </i>
    <i name="e_wo_entrp">   -440.30323769 </i>
    <i name="e_0_energy">   -440.30526935 </i>
   </energy>
  </scstep>
  <scstep>
   <time name="dav">   11.21   11.21</time>
   <time name="total">   13.88   13.88</time>
   <energy>
    <i name="e_fr_energy">   -440.30941520 </i>
    <i name="e_wo_entrp">   -440.30556307 </i>
    <i name="e_0_energy">   -440.30748913 </i>
   </energy>
  </scstep>
  <scstep>
   <time name="dav">   11.52   11.55</time>
   <time name="total">   14.14   14.17</time>
   <energy>
    <i name="e_fr_energy">   -440.29432271 </i>
    <i name="e_wo_entrp">   -440.29047143 </i>
    <i name="e_0_energy">   -440.29239707 </i>
   </energy>
  </scstep>
  <scstep>
   <time name="dav">   10.94   10.94</time>
   <time name="total">   13.62   13.62</time>
   <energy>
    <i name="e_fr_energy">   -440.30964755 </i>
    <i name="e_wo_entrp">   -440.30669724 </i>
    <i name="e_0_energy">   -440.30817239 </i>
   </energy>
  </scstep>
  <scstep>
   <time name="dav">   11.07   11.09</time>
   <time name="total">   13.87   13.89</time>
   <energy>
    <i name="e_fr_energy">   -440.30668466 </i>
    <i name="e_wo_entrp">   -440.30401828 </i>
    <i name="e_0_energy">   -440.30535147 </i>
   </energy>
  </scstep>
  <scstep>
   <time name="dav">   11.25   11.25</time>
   <time name="total">   13.88   13.89</time>
   <energy>
    <i name="e_fr_energy">   -440.30184641 </i>
    <i name="e_wo_entrp">   -440.29928355 </i>
    <i name="e_0_energy">   -440.30056498 </i>
   </energy>
  </scstep>
  <scstep>
   <time name="dav">   12.22   12.26</time>
   <time name="total">   14.86   14.89</time>
   <energy>
    <i name="e_fr_energy">   -440.30043552 </i>
    <i name="e_wo_entrp">   -440.29791613 </i>
    <i name="e_0_energy">   -440.29917583 </i>
   </energy>
  </scstep>
  <scstep>
   <time name="dav">   12.14   12.14</time>
   <time name="total">   14.75   14.75</time>
   <energy>
    <i name="e_fr_energy">   -440.29435579 </i>
    <i name="e_wo_entrp">   -440.29191091 </i>
    <i name="e_0_energy">   -440.29313335 </i>
   </energy>
  </scstep>
  <scstep>
   <time name="dav">   11.14   11.14</time>
   <time name="total">   13.80   13.83</time>
   <energy>
    <i name="e_fr_energy">   -440.29222187 </i>
    <i name="e_wo_entrp">   -440.28944444 </i>
    <i name="e_0_energy">   -440.29083315 </i>
   </energy>
  </scstep>
  <scstep>
   <time name="dav">   10.71   10.71</time>
   <time name="total">   13.34   13.34</time>
   <energy>
    <i name="e_fr_energy">   -440.29395227 </i>
    <i name="e_wo_entrp">   -440.29111949 </i>
    <i name="e_0_energy">   -440.29253588 </i>
   </energy>
  </scstep>
  <scstep>
   <time name="dav">   12.12   12.13</time>
   <time name="total">   14.72   14.73</time>
   <energy>
    <i name="e_fr_energy">   -440.29194741 </i>
    <i name="e_wo_entrp">   -440.28903723 </i>
    <i name="e_0_energy">   -440.29049232 </i>
   </energy>
  </scstep>
  <scstep>
   <time name="dav">   10.25   10.28</time>
   <time name="total">   12.89   12.91</time>
   <energy>
    <i name="e_fr_energy">   -440.28929869 </i>
    <i name="e_wo_entrp">   -440.28671856 </i>
    <i name="e_0_energy">   -440.28800863 </i>
   </energy>
  </scstep>
  <scstep>
   <time name="dav">   10.45   10.45</time>
   <time name="total">   13.14   13.14</time>
   <energy>
    <i name="e_fr_energy">   -440.28870696 </i>
    <i name="e_wo_entrp">   -440.28649616 </i>
    <i name="e_0_energy">   -440.28760156 </i>
   </energy>
  </scstep>
  <scstep>
   <time name="dav">   11.06   11.09</time>
   <time name="total">   13.66   13.69</time>
   <energy>
    <i name="e_fr_energy">   -440.29080184 </i>
    <i name="e_wo_entrp">   -440.28872968 </i>
    <i name="e_0_energy">   -440.28976576 </i>
   </energy>
  </scstep>
  <scstep>
   <time name="dav">   11.73   11.73</time>
   <time name="total">   14.35   14.35</time>
   <energy>
    <i name="e_fr_energy">   -440.28544002 </i>
    <i name="e_wo_entrp">   -440.28335371 </i>
    <i name="e_0_energy">   -440.28439687 </i>
   </energy>
  </scstep>
  <scstep>
   <time name="dav">   11.19   11.22</time>
   <time name="total">   13.83   13.86</time>
   <energy>
    <i name="e_fr_energy">   -440.28115779 </i>
    <i name="e_wo_entrp">   -440.27895599 </i>
    <i name="e_0_energy">   -440.28005689 </i>
   </energy>
  </scstep>
  <scstep>
   <time name="dav">   11.85   11.85</time>
   <time name="total">   14.45   14.45</time>
   <energy>
    <i name="e_fr_energy">   -440.27807183 </i>
    <i name="e_wo_entrp">   -440.27571923 </i>
    <i name="e_0_energy">   -440.27689553 </i>
   </energy>
  </scstep>
  <scstep>
   <time name="dav">   11.40   11.40</time>
   <time name="total">   13.99   14.02</time>
   <energy>
    <i name="e_fr_energy">   -440.27434532 </i>
    <i name="e_wo_entrp">   -440.27211232 </i>
    <i name="e_0_energy">   -440.27322882 </i>
   </energy>
  </scstep>
  <scstep>
   <time name="dav">   11.71   12.06</time>
   <time name="total">   14.31   14.66</time>
   <energy>
    <i name="e_fr_energy">   -440.26586714 </i>
    <i name="e_wo_entrp">   -440.26367584 </i>
    <i name="e_0_energy">   -440.26477149 </i>
   </energy>
  </scstep>
  <scstep>
   <time name="dav">   10.32   10.32</time>
   <time name="total">   12.90   12.90</time>
   <energy>
    <i name="e_fr_energy">   -440.26792053 </i>
    <i name="e_wo_entrp">   -440.26575705 </i>
    <i name="e_0_energy">   -440.26683879 </i>
   </energy>
  </scstep>
  <scstep>
   <time name="dav">   11.43   11.46</time>
   <time name="total">   14.03   14.06</time>
   <energy>
    <i name="e_fr_energy">   -440.26210839 </i>
    <i name="e_wo_entrp">   -440.25988192 </i>
    <i name="e_0_energy">   -440.26099515 </i>
   </energy>
  </scstep>
  <scstep>
   <time name="dav">   11.26   11.26</time>
   <time name="total">   13.81   13.81</time>
   <energy>
    <i name="e_fr_energy">   -440.25825529 </i>
    <i name="e_wo_entrp">   -440.25593221 </i>
    <i name="e_0_energy">   -440.25709375 </i>
   </energy>
  </scstep>
  <scstep>
   <time name="dav">   11.00   11.03</time>
   <time name="total">   13.60   13.63</time>
   <energy>
    <i name="e_fr_energy">   -440.26171620 </i>
    <i name="e_wo_entrp">   -440.25937740 </i>
    <i name="e_0_energy">   -440.26054680 </i>
   </energy>
  </scstep>
  <scstep>
   <time name="dav">   11.31   11.31</time>
   <time name="total">   13.88   13.88</time>
   <energy>
    <i name="e_fr_energy">   -440.25781334 </i>
    <i name="e_wo_entrp">   -440.25547313 </i>
    <i name="e_0_energy">   -440.25664324 </i>
   </energy>
  </scstep>
  <scstep>
   <time name="dav">   11.21   11.23</time>
   <time name="total">   13.76   13.79</time>
   <energy>
    <i name="e_fr_energy">   -440.24965363 </i>
    <i name="e_wo_entrp">   -440.24727730 </i>
    <i name="e_0_energy">   -440.24846547 </i>
   </energy>
  </scstep>
  <scstep>
   <time name="dav">   10.65   10.65</time>
   <time name="total">   13.20   13.20</time>
   <energy>
    <i name="e_fr_energy">   -440.24987179 </i>
    <i name="e_wo_entrp">   -440.24751509 </i>
    <i name="e_0_energy">   -440.24869344 </i>
   </energy>
  </scstep>
  <scstep>
   <time name="dav">   12.68   12.71</time>
   <time name="total">   15.22   15.25</time>
   <energy>
    <i name="e_fr_energy">   -440.24943896 </i>
    <i name="e_wo_entrp">   -440.24709824 </i>
    <i name="e_0_energy">   -440.24826860 </i>
   </energy>
  </scstep>
  <scstep>
   <time name="dav">   10.59   10.59</time>
   <time name="total">   13.13   13.13</time>
   <energy>
    <i name="e_fr_energy">   -440.24950144 </i>
    <i name="e_wo_entrp">   -440.24715510 </i>
    <i name="e_0_energy">   -440.24832827 </i>
   </energy>
  </scstep>
  <scstep>
   <time name="dav">   11.67   11.67</time>
   <time name="total">   14.21   14.21</time>
   <energy>
    <i name="e_fr_energy">   -440.24921891 </i>
    <i name="e_wo_entrp">   -440.24684214 </i>
    <i name="e_0_energy">   -440.24803052 </i>
   </energy>
  </scstep>
  <scstep>
   <time name="dav">   11.56   11.59</time>
   <time name="total">   14.11   14.14</time>
   <energy>
    <i name="e_fr_energy">   -440.24899812 </i>
    <i name="e_wo_entrp">   -440.24668461 </i>
    <i name="e_0_energy">   -440.24784137 </i>
   </energy>
  </scstep>
  <scstep>
   <time name="dav">   11.55   11.55</time>
   <time name="total">   14.10   14.10</time>
   <energy>
    <i name="e_fr_energy">   -440.24872972 </i>
    <i name="e_wo_entrp">   -440.24647809 </i>
    <i name="e_0_energy">   -440.24760391 </i>
   </energy>
  </scstep>
  <scstep>
   <time name="dav">   10.72   10.75</time>
   <time name="total">   13.30   13.33</time>
   <energy>
    <i name="e_fr_energy">   -440.24862752 </i>
    <i name="e_wo_entrp">   -440.24640468 </i>
    <i name="e_0_energy">   -440.24751610 </i>
   </energy>
  </scstep>
  <scstep>
   <time name="dav">   10.42   10.42</time>
   <time name="total">   12.98   12.98</time>
   <energy>
    <i name="e_fr_energy">   -440.24858197 </i>
    <i name="e_wo_entrp">   -440.24636065 </i>
    <i name="e_0_energy">   -440.24747131 </i>
   </energy>
  </scstep>
  <scstep>
   <time name="dav">    9.55    9.58</time>
   <time name="total">   12.09   12.12</time>
   <energy>
    <i name="e_fr_energy">   -440.24855593 </i>
    <i name="e_wo_entrp">   -440.24632334 </i>
    <i name="e_0_energy">   -440.24743963 </i>
   </energy>
  </scstep>
  <scstep>
   <time name="dav">    9.29    9.29</time>
   <time name="total">   10.91   10.91</time>
   <energy>
    <i name="alphaZ">     47.26979112 </i>
    <i name="ewald">  19291.42231796 </i>
    <i name="hartreedc"> -21884.35717711 </i>
    <i name="XCdc">   -376.29651368 </i>
    <i name="pawpsdc">   5252.68651600 </i>
    <i name="pawaedc">  -5098.89829034 </i>
    <i name="eentropy">     -0.00223649 </i>
    <i name="bandstr">   -333.60152225 </i>
    <i name="atom">   2661.52855728 </i>
    <i name="e_fr_energy">   -440.24855751 </i>
    <i name="e_wo_entrp">   -440.24632101 </i>
    <i name="e_0_energy">   -440.24743926 </i>
   </energy>
  </scstep>
  <structure>
   <crystal>
    <varray name="basis" >
     <v>       3.55100000       0.00000000       0.00000000 </v>
     <v>       0.00000000       6.14900000       0.00000000 </v>
     <v>       0.00000000       0.00000000      35.00000000 </v>
    </varray>
    <i name="volume">    764.22846500 </i>
    <varray name="rec_basis" >
     <v>       0.28161081       0.00000000       0.00000000 </v>
     <v>       0.00000000       0.16262807       0.00000000 </v>
     <v>       0.00000000       0.00000000       0.02857143 </v>
    </varray>
   </crystal>
   <varray name="positions" >
    <v>       0.00000000       0.66668737       0.16062496 </v>
    <v>       0.00000000       0.66666382       0.05883366 </v>
    <v>       0.50000000       0.16666917       0.16062661 </v>
    <v>       0.50000000       0.16667825       0.05883342 </v>
    <v>       0.00000000       0.33312661       0.37979062 </v>
    <v>       0.00000000       0.33349109       0.27787705 </v>
    <v>       0.50000000       0.83351400       0.37981714 </v>
    <v>       0.50000000       0.83318721       0.27787588 </v>
    <v>       0.00000000       0.00002280       0.10965813 </v>
    <v>       0.50000000       0.50002412       0.10966283 </v>
    <v>       0.00000000       0.99988989       0.32872400 </v>
    <v>       0.50000000       0.49995597       0.32885470 </v>
    <v>       0.50000000       0.50008971       0.49967442 </v>
   </varray>
  </structure>
  <varray name="forces" >
   <v>       0.00000008       0.00067598       0.02309620 </v>
   <v>       0.00000017       0.00099060       0.00164517 </v>
   <v>       0.00000542      -0.00047624       0.02314668 </v>
   <v>       0.00000023       0.00137549       0.00130161 </v>
   <v>      -0.00000371       0.00200785      -0.01341084 </v>
   <v>      -0.00000160       0.01048745      -0.03649479 </v>
   <v>      -0.00000049      -0.00417510      -0.00533033 </v>
   <v>       0.00000139      -0.01401548      -0.05301785 </v>
   <v>      -0.00000174       0.00057125       0.04668850 </v>
   <v>      -0.00000404       0.00039076       0.04711743 </v>
   <v>       0.00000132      -0.00296424       0.02211026 </v>
   <v>       0.00000276       0.00065971       0.03577588 </v>
   <v>       0.00000022       0.00447196      -0.09262791 </v>
  </varray>
  <varray name="stress" >
   <v>     -11.65450372       0.00001385       0.00002227 </v>
   <v>       0.00000494     -10.55371947       0.05697902 </v>
   <v>       0.00002282       0.05694785      -5.97984340 </v>
  </varray>
  <energy>
   <i name="e_fr_energy">   -440.24855751 </i>
   <i name="e_wo_entrp">   -440.24743926 </i>
   <i name="e_0_energy">     -0.00223649 </i>
  </energy>
  <time name="totalsc">  655.24  656.60</time>
  <eigenvalues>
   <array>
    <dimension dim="1">band</dimension>
    <dimension dim="2">kpoint</dimension>
    <dimension dim="3">spin</dimension>
    <field>eigene</field>
    <field>occ</field>
    <set>
     <set comment="spin 1">
      <set comment="kpoint 1">
       <r>  -13.2279    1.0000 </r>
       <r>  -13.1619    1.0000 </r>
       <r>  -12.2308    1.0000 </r>
       <r>  -12.1356    1.0000 </r>
       <r>  -11.2420    1.0000 </r>
       <r>  -11.1889    1.0000 </r>
       <r>  -10.8463    1.0000 </r>
       <r>  -10.7859    1.0000 </r>
       <r>   -5.7596    1.0000 </r>
       <r>   -5.7076    1.0000 </r>
       <r>   -5.5284    1.0000 </r>
       <r>   -5.2428    1.0000 </r>
       <r>   -4.8596    1.0000 </r>
       <r>   -4.7607    1.0000 </r>
       <r>   -3.7347    1.0000 </r>
       <r>   -3.6629    1.0000 </r>
       <r>   -2.5919    1.0000 </r>
       <r>   -2.5495    1.0000 </r>
       <r>   -2.3160    1.0000 </r>
       <r>   -1.9788    1.0000 </r>
       <r>   -1.9671    1.0000 </r>
       <r>   -1.9324    1.0000 </r>
       <r>   -1.9175    1.0000 </r>
       <r>   -1.8833    1.0000 </r>
       <r>   -1.6889    1.0000 </r>
       <r>   -1.6611    1.0000 </r>
       <r>   -1.1454    1.0000 </r>
       <r>   -1.1092    1.0000 </r>
       <r>   -1.1080    1.0000 </r>
       <r>   -1.0797    1.0000 </r>
       <r>   -1.0566    1.0000 </r>
       <r>   -0.9787    1.0000 </r>
       <r>   -0.7609    1.0000 </r>
       <r>   -0.4978    1.0000 </r>
       <r>   -0.4438    1.0000 </r>
       <r>   -0.3626    1.0000 </r>
       <r>    0.3837    1.0000 </r>
       <r>    1.3762    0.0000 </r>
       <r>    1.4146    0.0000 </r>
       <r>    1.7037    0.0000 </r>
       <r>    1.7691    0.0000 </r>
       <r>    2.8198    0.0000 </r>
       <r>    3.0465    0.0000 </r>
       <r>    3.1071    0.0000 </r>
       <r>    3.1162    0.0000 </r>
       <r>    3.1337    0.0000 </r>
       <r>    3.2023    0.0000 </r>
       <r>    3.3417    0.0000 </r>
      </set>
      <set comment="kpoint 2">
       <r>  -13.1755    1.0000 </r>
       <r>  -13.1096    1.0000 </r>
       <r>  -12.1929    1.0000 </r>
       <r>  -12.0983    1.0000 </r>
       <r>  -11.2152    1.0000 </r>
       <r>  -11.1624    1.0000 </r>
       <r>  -10.8250    1.0000 </r>
       <r>  -10.7650    1.0000 </r>
       <r>   -5.6975    1.0000 </r>
       <r>   -5.6455    1.0000 </r>
       <r>   -5.4704    1.0000 </r>
       <r>   -5.1856    1.0000 </r>
       <r>   -4.8443    1.0000 </r>
       <r>   -4.7500    1.0000 </r>
       <r>   -3.7151    1.0000 </r>
       <r>   -3.6417    1.0000 </r>
       <r>   -2.6874    1.0000 </r>
       <r>   -2.6406    1.0000 </r>
       <r>   -2.3830    1.0000 </r>
       <r>   -2.0897    1.0000 </r>
       <r>   -2.0541    1.0000 </r>
       <r>   -1.9510    1.0000 </r>
       <r>   -1.8724    1.0000 </r>
       <r>   -1.8375    1.0000 </r>
       <r>   -1.8192    1.0000 </r>
       <r>   -1.6831    1.0000 </r>
       <r>   -1.3961    1.0000 </r>
       <r>   -1.3391    1.0000 </r>
       <r>   -1.2160    1.0000 </r>
       <r>   -1.1800    1.0000 </r>
       <r>   -1.0902    1.0000 </r>
       <r>   -0.9806    1.0000 </r>
       <r>   -0.7445    1.0000 </r>
       <r>   -0.4500    1.0000 </r>
       <r>   -0.3892    1.0000 </r>
       <r>   -0.3670    1.0000 </r>
       <r>    0.4309    1.0000 </r>
       <r>    1.3916    0.0000 </r>
       <r>    1.4379    0.0000 </r>
       <r>    1.7283    0.0000 </r>
       <r>    1.7980    0.0000 </r>
       <r>    2.7475    0.0000 </r>
       <r>    2.8644    0.0000 </r>
       <r>    2.8945    0.0000 </r>
       <r>    3.0863    0.0000 </r>
       <r>    3.1585    0.0000 </r>
       <r>    3.1803    0.0000 </r>
       <r>    3.1916    0.0000 </r>
      </set>
      <set comment="kpoint 3">
       <r>  -13.0721    1.0000 </r>
       <r>  -13.0063    1.0000 </r>
       <r>  -12.1181    1.0000 </r>
       <r>  -12.0247    1.0000 </r>
       <r>  -11.1651    1.0000 </r>
       <r>  -11.1125    1.0000 </r>
       <r>  -10.7852    1.0000 </r>
       <r>  -10.7259    1.0000 </r>
       <r>   -5.5754    1.0000 </r>
       <r>   -5.5233    1.0000 </r>
       <r>   -5.3575    1.0000 </r>
       <r>   -5.0745    1.0000 </r>
       <r>   -4.8195    1.0000 </r>
       <r>   -4.7344    1.0000 </r>
       <r>   -3.6820    1.0000 </r>
       <r>   -3.6049    1.0000 </r>
       <r>   -2.8394    1.0000 </r>
       <r>   -2.7832    1.0000 </r>
       <r>   -2.5039    1.0000 </r>
       <r>   -2.3190    1.0000 </r>
       <r>   -2.2812    1.0000 </r>
       <r>   -2.0439    1.0000 </r>
       <r>   -1.9339    1.0000 </r>
       <r>   -1.9186    1.0000 </r>
       <r>   -1.8518    1.0000 </r>
       <r>   -1.7872    1.0000 </r>
       <r>   -1.7519    1.0000 </r>
       <r>   -1.6785    1.0000 </r>
       <r>   -1.3708    1.0000 </r>
       <r>   -1.3334    1.0000 </r>
       <r>   -1.0682    1.0000 </r>
       <r>   -0.9068    1.0000 </r>
       <r>   -0.7251    1.0000 </r>
       <r>   -0.4150    1.0000 </r>
       <r>   -0.3915    1.0000 </r>
       <r>   -0.3426    1.0000 </r>
       <r>    0.5220    1.0000 </r>
       <r>    1.3797    0.0000 </r>
       <r>    1.4405    0.0000 </r>
       <r>    1.7938    0.0000 </r>
       <r>    1.9022    0.0000 </r>
       <r>    2.4454    0.0000 </r>
       <r>    2.5193    0.0000 </r>
       <r>    2.5688    0.0000 </r>
       <r>    2.6840    0.0000 </r>
       <r>    2.7475    0.0000 </r>
       <r>    2.8534    0.0000 </r>
       <r>    3.0380    0.0000 </r>
      </set>
      <set comment="kpoint 4">
       <r>  -12.9201    1.0000 </r>
       <r>  -12.8546    1.0000 </r>
       <r>  -12.0083    1.0000 </r>
       <r>  -11.9170    1.0000 </r>
       <r>  -11.0983    1.0000 </r>
       <r>  -11.0462    1.0000 </r>
       <r>  -10.7327    1.0000 </r>
       <r>  -10.6746    1.0000 </r>
       <r>   -5.3986    1.0000 </r>
       <r>   -5.3457    1.0000 </r>
       <r>   -5.1966    1.0000 </r>
       <r>   -4.9173    1.0000 </r>
       <r>   -4.7967    1.0000 </r>
       <r>   -4.7246    1.0000 </r>
       <r>   -3.6506    1.0000 </r>
       <r>   -3.5670    1.0000 </r>
       <r>   -3.0029    1.0000 </r>
       <r>   -2.9317    1.0000 </r>
       <r>   -2.6638    1.0000 </r>
       <r>   -2.6291    1.0000 </r>
       <r>   -2.5864    1.0000 </r>
       <r>   -2.5091    1.0000 </r>
       <r>   -2.4286    1.0000 </r>
       <r>   -2.2901    1.0000 </r>
       <r>   -1.9187    1.0000 </r>
       <r>   -1.7189    1.0000 </r>
       <r>   -1.6738    1.0000 </r>
       <r>   -1.6380    1.0000 </r>
       <r>   -1.6222    1.0000 </r>
       <r>   -1.5809    1.0000 </r>
       <r>   -1.0516    1.0000 </r>
       <r>   -0.8735    1.0000 </r>
       <r>   -0.7271    1.0000 </r>
       <r>   -0.4561    1.0000 </r>
       <r>   -0.3646    1.0000 </r>
       <r>   -0.2983    1.0000 </r>
       <r>    0.6512    1.0000 </r>
       <r>    1.3154    0.0000 </r>
       <r>    1.3759    0.0000 </r>
       <r>    1.9338    0.0000 </r>
       <r>    2.0695    0.0000 </r>
       <r>    2.0925    0.0000 </r>
       <r>    2.1548    0.0000 </r>
       <r>    2.2428    0.0000 </r>
       <r>    2.3349    0.0000 </r>
       <r>    2.3736    0.0000 </r>
       <r>    2.4621    0.0000 </r>
       <r>    2.7255    0.0000 </r>
      </set>
      <set comment="kpoint 5">
       <r>  -12.7239    1.0000 </r>
       <r>  -12.6589    1.0000 </r>
       <r>  -11.8671    1.0000 </r>
       <r>  -11.7784    1.0000 </r>
       <r>  -11.0257    1.0000 </r>
       <r>  -10.9743    1.0000 </r>
       <r>  -10.6766    1.0000 </r>
       <r>  -10.6198    1.0000 </r>
       <r>   -5.1777    1.0000 </r>
       <r>   -5.1225    1.0000 </r>
       <r>   -4.9999    1.0000 </r>
       <r>   -4.7896    1.0000 </r>
       <r>   -4.7312    1.0000 </r>
       <r>   -4.7278    1.0000 </r>
       <r>   -3.6640    1.0000 </r>
       <r>   -3.5736    1.0000 </r>
       <r>   -3.1379    1.0000 </r>
       <r>   -3.0530    1.0000 </r>
       <r>   -3.0367    1.0000 </r>
       <r>   -2.9915    1.0000 </r>
       <r>   -2.9526    1.0000 </r>
       <r>   -2.9492    1.0000 </r>
       <r>   -2.8306    1.0000 </r>
       <r>   -2.5451    1.0000 </r>
       <r>   -1.9625    1.0000 </r>
       <r>   -1.9372    1.0000 </r>
       <r>   -1.9144    1.0000 </r>
       <r>   -1.7861    1.0000 </r>
       <r>   -1.5639    1.0000 </r>
       <r>   -1.5253    1.0000 </r>
       <r>   -1.0526    1.0000 </r>
       <r>   -0.8856    1.0000 </r>
       <r>   -0.7662    1.0000 </r>
       <r>   -0.5608    1.0000 </r>
       <r>   -0.2897    1.0000 </r>
       <r>   -0.2351    1.0000 </r>
       <r>    0.8108    1.0000 </r>
       <r>    1.2120    0.0000 </r>
       <r>    1.2629    0.0000 </r>
       <r>    1.7436    0.0000 </r>
       <r>    1.8983    0.0000 </r>
       <r>    2.0055    0.0000 </r>
       <r>    2.0532    0.0000 </r>
       <r>    2.0849    0.0000 </r>
       <r>    2.1418    0.0000 </r>
       <r>    2.2260    0.0000 </r>
       <r>    2.3267    0.0000 </r>
       <r>    2.3774    0.0000 </r>
      </set>
      <set comment="kpoint 6">
       <r>  -12.4896    1.0000 </r>
       <r>  -12.4254    1.0000 </r>
       <r>  -11.6994    1.0000 </r>
       <r>  -11.6140    1.0000 </r>
       <r>  -10.9628    1.0000 </r>
       <r>  -10.9122    1.0000 </r>
       <r>  -10.6291    1.0000 </r>
       <r>  -10.5736    1.0000 </r>
       <r>   -4.9413    1.0000 </r>
       <r>   -4.8812    1.0000 </r>
       <r>   -4.8041    1.0000 </r>
       <r>   -4.7902    1.0000 </r>
       <r>   -4.7546    1.0000 </r>
       <r>   -4.5347    1.0000 </r>
       <r>   -3.8440    1.0000 </r>
       <r>   -3.7776    1.0000 </r>
       <r>   -3.3602    1.0000 </r>
       <r>   -3.3154    1.0000 </r>
       <r>   -3.2966    1.0000 </r>
       <r>   -3.2289    1.0000 </r>
       <r>   -3.2146    1.0000 </r>
       <r>   -3.1134    1.0000 </r>
       <r>   -3.0320    1.0000 </r>
       <r>   -2.8219    1.0000 </r>
       <r>   -2.3460    1.0000 </r>
       <r>   -2.2819    1.0000 </r>
       <r>   -1.9663    1.0000 </r>
       <r>   -1.8621    1.0000 </r>
       <r>   -1.5379    1.0000 </r>
       <r>   -1.4922    1.0000 </r>
       <r>   -1.0785    1.0000 </r>
       <r>   -0.9014    1.0000 </r>
       <r>   -0.8115    1.0000 </r>
       <r>   -0.6795    1.0000 </r>
       <r>   -0.2027    1.0000 </r>
       <r>   -0.1572    1.0000 </r>
       <r>    0.9869    0.4496 </r>
       <r>    1.1028    0.0003 </r>
       <r>    1.1432    0.0000 </r>
       <r>    1.4960    0.0000 </r>
       <r>    1.6766    0.0000 </r>
       <r>    1.9109    0.0000 </r>
       <r>    1.9213    0.0000 </r>
       <r>    1.9887    0.0000 </r>
       <r>    2.0343    0.0000 </r>
       <r>    2.0847    0.0000 </r>
       <r>    2.1918    0.0000 </r>
       <r>    2.3641    0.0000 </r>
      </set>
      <set comment="kpoint 7">
       <r>  -12.2262    1.0000 </r>
       <r>  -12.1631    1.0000 </r>
       <r>  -11.5120    1.0000 </r>
       <r>  -11.4306    1.0000 </r>
       <r>  -10.9292    1.0000 </r>
       <r>  -10.8790    1.0000 </r>
       <r>  -10.6046    1.0000 </r>
       <r>  -10.5498    1.0000 </r>
       <r>   -4.8246    1.0000 </r>
       <r>   -4.7936    1.0000 </r>
       <r>   -4.7769    1.0000 </r>
       <r>   -4.7274    1.0000 </r>
       <r>   -4.6202    1.0000 </r>
       <r>   -4.4092    1.0000 </r>
       <r>   -4.0504    1.0000 </r>
       <r>   -3.9957    1.0000 </r>
       <r>   -3.6686    1.0000 </r>
       <r>   -3.6081    1.0000 </r>
       <r>   -3.3260    1.0000 </r>
       <r>   -3.2847    1.0000 </r>
       <r>   -3.2638    1.0000 </r>
       <r>   -3.2384    1.0000 </r>
       <r>   -3.1576    1.0000 </r>
       <r>   -3.1311    1.0000 </r>
       <r>   -2.6906    1.0000 </r>
       <r>   -2.5934    1.0000 </r>
       <r>   -1.9871    1.0000 </r>
       <r>   -1.9081    1.0000 </r>
       <r>   -1.6834    1.0000 </r>
       <r>   -1.6299    1.0000 </r>
       <r>   -1.1498    1.0000 </r>
       <r>   -0.9011    1.0000 </r>
       <r>   -0.7896    1.0000 </r>
       <r>   -0.7391    1.0000 </r>
       <r>   -0.1476    1.0000 </r>
       <r>   -0.1043    1.0000 </r>
       <r>    1.0327    0.0774 </r>
       <r>    1.0731    0.0051 </r>
       <r>    1.1190    0.0001 </r>
       <r>    1.3694    0.0000 </r>
       <r>    1.5339    0.0000 </r>
       <r>    1.8136    0.0000 </r>
       <r>    1.8707    0.0000 </r>
       <r>    1.9224    0.0000 </r>
       <r>    1.9425    0.0000 </r>
       <r>    1.9755    0.0000 </r>
       <r>    2.1695    0.0000 </r>
       <r>    2.4925    0.0000 </r>
      </set>
      <set comment="kpoint 8">
       <r>  -11.9457    1.0000 </r>
       <r>  -11.8844    1.0000 </r>
       <r>  -11.3141    1.0000 </r>
       <r>  -11.2374    1.0000 </r>
       <r>  -10.9460    1.0000 </r>
       <r>  -10.8956    1.0000 </r>
       <r>  -10.6170    1.0000 </r>
       <r>  -10.5618    1.0000 </r>
       <r>   -4.8803    1.0000 </r>
       <r>   -4.8213    1.0000 </r>
       <r>   -4.8112    1.0000 </r>
       <r>   -4.7662    1.0000 </r>
       <r>   -4.6045    1.0000 </r>
       <r>   -4.4840    1.0000 </r>
       <r>   -3.9315    1.0000 </r>
       <r>   -3.8724    1.0000 </r>
       <r>   -3.8061    1.0000 </r>
       <r>   -3.7004    1.0000 </r>
       <r>   -3.6019    1.0000 </r>
       <r>   -3.5387    1.0000 </r>
       <r>   -3.3122    1.0000 </r>
       <r>   -3.2477    1.0000 </r>
       <r>   -3.2263    1.0000 </r>
       <r>   -3.1216    1.0000 </r>
       <r>   -2.9227    1.0000 </r>
       <r>   -2.8026    1.0000 </r>
       <r>   -1.9782    1.0000 </r>
       <r>   -1.9621    1.0000 </r>
       <r>   -1.9074    1.0000 </r>
       <r>   -1.8848    1.0000 </r>
       <r>   -1.2758    1.0000 </r>
       <r>   -1.0407    1.0000 </r>
       <r>   -0.7004    1.0000 </r>
       <r>   -0.6547    1.0000 </r>
       <r>   -0.1757    1.0000 </r>
       <r>   -0.1314    1.0000 </r>
       <r>    1.0670    0.0084 </r>
       <r>    1.1084    0.0002 </r>
       <r>    1.1118    0.0001 </r>
       <r>    1.3313    0.0000 </r>
       <r>    1.6191    0.0000 </r>
       <r>    1.7253    0.0000 </r>
       <r>    1.8453    0.0000 </r>
       <r>    1.9004    0.0000 </r>
       <r>    1.9668    0.0000 </r>
       <r>    2.0582    0.0000 </r>
       <r>    2.2250    0.0000 </r>
       <r>    2.4268    0.0000 </r>
      </set>
      <set comment="kpoint 9">
       <r>  -11.6647    1.0000 </r>
       <r>  -11.6056    1.0000 </r>
       <r>  -11.1175    1.0000 </r>
       <r>  -11.0459    1.0000 </r>
       <r>  -11.0296    1.0000 </r>
       <r>  -10.9781    1.0000 </r>
       <r>  -10.6765    1.0000 </r>
       <r>  -10.6191    1.0000 </r>
       <r>   -5.0092    1.0000 </r>
       <r>   -4.9496    1.0000 </r>
       <r>   -4.7661    1.0000 </r>
       <r>   -4.7398    1.0000 </r>
       <r>   -4.6956    1.0000 </r>
       <r>   -4.6898    1.0000 </r>
       <r>   -4.0050    1.0000 </r>
       <r>   -3.9483    1.0000 </r>
       <r>   -3.7088    1.0000 </r>
       <r>   -3.6681    1.0000 </r>
       <r>   -3.5758    1.0000 </r>
       <r>   -3.5690    1.0000 </r>
       <r>   -3.2749    1.0000 </r>
       <r>   -3.2129    1.0000 </r>
       <r>   -3.1892    1.0000 </r>
       <r>   -3.1007    1.0000 </r>
       <r>   -3.0556    1.0000 </r>
       <r>   -2.9364    1.0000 </r>
       <r>   -2.3108    1.0000 </r>
       <r>   -2.2564    1.0000 </r>
       <r>   -1.9117    1.0000 </r>
       <r>   -1.7867    1.0000 </r>
       <r>   -1.4388    1.0000 </r>
       <r>   -1.2320    1.0000 </r>
       <r>   -0.6146    1.0000 </r>
       <r>   -0.5603    1.0000 </r>
       <r>   -0.2826    1.0000 </r>
       <r>   -0.2375    1.0000 </r>
       <r>    1.1546    0.0000 </r>
       <r>    1.1851    0.0000 </r>
       <r>    1.2432    0.0000 </r>
       <r>    1.4020    0.0000 </r>
       <r>    1.6586    0.0000 </r>
       <r>    1.7132    0.0000 </r>
       <r>    1.9066    0.0000 </r>
       <r>    1.9652    0.0000 </r>
       <r>    2.0157    0.0000 </r>
       <r>    2.1555    0.0000 </r>
       <r>    2.2079    0.0000 </r>
       <r>    2.2805    0.0000 </r>
      </set>
      <set comment="kpoint 10">
       <r>  -11.4037    1.0000 </r>
       <r>  -11.3472    1.0000 </r>
       <r>  -11.1853    1.0000 </r>
       <r>  -11.1316    1.0000 </r>
       <r>  -10.9362    1.0000 </r>
       <r>  -10.8700    1.0000 </r>
       <r>  -10.7849    1.0000 </r>
       <r>  -10.7238    1.0000 </r>
       <r>   -5.0353    1.0000 </r>
       <r>   -4.9771    1.0000 </r>
       <r>   -4.9425    1.0000 </r>
       <r>   -4.8833    1.0000 </r>
       <r>   -4.5788    1.0000 </r>
       <r>   -4.5270    1.0000 </r>
       <r>   -4.3280    1.0000 </r>
       <r>   -4.2745    1.0000 </r>
       <r>   -3.5995    1.0000 </r>
       <r>   -3.5440    1.0000 </r>
       <r>   -3.4662    1.0000 </r>
       <r>   -3.4234    1.0000 </r>
       <r>   -3.1765    1.0000 </r>
       <r>   -3.1314    1.0000 </r>
       <r>   -3.0840    1.0000 </r>
       <r>   -3.0483    1.0000 </r>
       <r>   -3.0211    1.0000 </r>
       <r>   -2.9933    1.0000 </r>
       <r>   -2.6907    1.0000 </r>
       <r>   -2.6360    1.0000 </r>
       <r>   -1.7844    1.0000 </r>
       <r>   -1.6299    1.0000 </r>
       <r>   -1.6164    1.0000 </r>
       <r>   -1.4361    1.0000 </r>
       <r>   -0.5281    1.0000 </r>
       <r>   -0.4729    1.0000 </r>
       <r>   -0.4148    1.0000 </r>
       <r>   -0.3656    1.0000 </r>
       <r>    1.2769    0.0000 </r>
       <r>    1.2971    0.0000 </r>
       <r>    1.4110    0.0000 </r>
       <r>    1.5206    0.0000 </r>
       <r>    1.6665    0.0000 </r>
       <r>    1.7155    0.0000 </r>
       <r>    1.8257    0.0000 </r>
       <r>    1.9277    0.0000 </r>
       <r>    2.0453    0.0000 </r>
       <r>    2.0855    0.0000 </r>
       <r>    2.1777    0.0000 </r>
       <r>    2.2172    0.0000 </r>
      </set>
      <set comment="kpoint 11">
       <r>  -11.4037    1.0000 </r>
       <r>  -11.3472    1.0000 </r>
       <r>  -11.1853    1.0000 </r>
       <r>  -11.1316    1.0000 </r>
       <r>  -10.9362    1.0000 </r>
       <r>  -10.8700    1.0000 </r>
       <r>  -10.7849    1.0000 </r>
       <r>  -10.7238    1.0000 </r>
       <r>   -5.0353    1.0000 </r>
       <r>   -4.9771    1.0000 </r>
       <r>   -4.9425    1.0000 </r>
       <r>   -4.8833    1.0000 </r>
       <r>   -4.5788    1.0000 </r>
       <r>   -4.5270    1.0000 </r>
       <r>   -4.3280    1.0000 </r>
       <r>   -4.2745    1.0000 </r>
       <r>   -3.5995    1.0000 </r>
       <r>   -3.5440    1.0000 </r>
       <r>   -3.4662    1.0000 </r>
       <r>   -3.4234    1.0000 </r>
       <r>   -3.1765    1.0000 </r>
       <r>   -3.1314    1.0000 </r>
       <r>   -3.0840    1.0000 </r>
       <r>   -3.0483    1.0000 </r>
       <r>   -3.0211    1.0000 </r>
       <r>   -2.9933    1.0000 </r>
       <r>   -2.6907    1.0000 </r>
       <r>   -2.6360    1.0000 </r>
       <r>   -1.7844    1.0000 </r>
       <r>   -1.6299    1.0000 </r>
       <r>   -1.6164    1.0000 </r>
       <r>   -1.4361    1.0000 </r>
       <r>   -0.5281    1.0000 </r>
       <r>   -0.4729    1.0000 </r>
       <r>   -0.4148    1.0000 </r>
       <r>   -0.3656    1.0000 </r>
       <r>    1.2769    0.0000 </r>
       <r>    1.2971    0.0000 </r>
       <r>    1.4110    0.0000 </r>
       <r>    1.5206    0.0000 </r>
       <r>    1.6665    0.0000 </r>
       <r>    1.7155    0.0000 </r>
       <r>    1.8257    0.0000 </r>
       <r>    1.9277    0.0000 </r>
       <r>    2.0453    0.0000 </r>
       <r>    2.0855    0.0000 </r>
       <r>    2.1777    0.0000 </r>
       <r>    2.2172    0.0000 </r>
      </set>
      <set comment="kpoint 12">
       <r>  -11.6647    1.0000 </r>
       <r>  -11.6056    1.0000 </r>
       <r>  -11.1175    1.0000 </r>
       <r>  -11.0459    1.0000 </r>
       <r>  -11.0296    1.0000 </r>
       <r>  -10.9781    1.0000 </r>
       <r>  -10.6765    1.0000 </r>
       <r>  -10.6191    1.0000 </r>
       <r>   -5.0092    1.0000 </r>
       <r>   -4.9496    1.0000 </r>
       <r>   -4.7661    1.0000 </r>
       <r>   -4.7398    1.0000 </r>
       <r>   -4.6956    1.0000 </r>
       <r>   -4.6898    1.0000 </r>
       <r>   -4.0050    1.0000 </r>
       <r>   -3.9483    1.0000 </r>
       <r>   -3.7088    1.0000 </r>
       <r>   -3.6681    1.0000 </r>
       <r>   -3.5758    1.0000 </r>
       <r>   -3.5690    1.0000 </r>
       <r>   -3.2749    1.0000 </r>
       <r>   -3.2129    1.0000 </r>
       <r>   -3.1892    1.0000 </r>
       <r>   -3.1007    1.0000 </r>
       <r>   -3.0556    1.0000 </r>
       <r>   -2.9364    1.0000 </r>
       <r>   -2.3108    1.0000 </r>
       <r>   -2.2564    1.0000 </r>
       <r>   -1.9117    1.0000 </r>
       <r>   -1.7867    1.0000 </r>
       <r>   -1.4388    1.0000 </r>
       <r>   -1.2320    1.0000 </r>
       <r>   -0.6146    1.0000 </r>
       <r>   -0.5603    1.0000 </r>
       <r>   -0.2826    1.0000 </r>
       <r>   -0.2375    1.0000 </r>
       <r>    1.1546    0.0000 </r>
       <r>    1.1851    0.0000 </r>
       <r>    1.2432    0.0000 </r>
       <r>    1.4020    0.0000 </r>
       <r>    1.6586    0.0000 </r>
       <r>    1.7132    0.0000 </r>
       <r>    1.9066    0.0000 </r>
       <r>    1.9652    0.0000 </r>
       <r>    2.0157    0.0000 </r>
       <r>    2.1555    0.0000 </r>
       <r>    2.2079    0.0000 </r>
       <r>    2.2805    0.0000 </r>
      </set>
      <set comment="kpoint 13">
       <r>  -11.9457    1.0000 </r>
       <r>  -11.8844    1.0000 </r>
       <r>  -11.3141    1.0000 </r>
       <r>  -11.2374    1.0000 </r>
       <r>  -10.9460    1.0000 </r>
       <r>  -10.8956    1.0000 </r>
       <r>  -10.6170    1.0000 </r>
       <r>  -10.5618    1.0000 </r>
       <r>   -4.8803    1.0000 </r>
       <r>   -4.8213    1.0000 </r>
       <r>   -4.8112    1.0000 </r>
       <r>   -4.7662    1.0000 </r>
       <r>   -4.6045    1.0000 </r>
       <r>   -4.4840    1.0000 </r>
       <r>   -3.9315    1.0000 </r>
       <r>   -3.8724    1.0000 </r>
       <r>   -3.8061    1.0000 </r>
       <r>   -3.7004    1.0000 </r>
       <r>   -3.6019    1.0000 </r>
       <r>   -3.5387    1.0000 </r>
       <r>   -3.3122    1.0000 </r>
       <r>   -3.2477    1.0000 </r>
       <r>   -3.2263    1.0000 </r>
       <r>   -3.1216    1.0000 </r>
       <r>   -2.9227    1.0000 </r>
       <r>   -2.8026    1.0000 </r>
       <r>   -1.9782    1.0000 </r>
       <r>   -1.9621    1.0000 </r>
       <r>   -1.9074    1.0000 </r>
       <r>   -1.8848    1.0000 </r>
       <r>   -1.2758    1.0000 </r>
       <r>   -1.0407    1.0000 </r>
       <r>   -0.7004    1.0000 </r>
       <r>   -0.6547    1.0000 </r>
       <r>   -0.1757    1.0000 </r>
       <r>   -0.1314    1.0000 </r>
       <r>    1.0670    0.0084 </r>
       <r>    1.1084    0.0002 </r>
       <r>    1.1118    0.0001 </r>
       <r>    1.3313    0.0000 </r>
       <r>    1.6191    0.0000 </r>
       <r>    1.7253    0.0000 </r>
       <r>    1.8453    0.0000 </r>
       <r>    1.9004    0.0000 </r>
       <r>    1.9668    0.0000 </r>
       <r>    2.0582    0.0000 </r>
       <r>    2.2250    0.0000 </r>
       <r>    2.4268    0.0000 </r>
      </set>
      <set comment="kpoint 14">
       <r>  -12.2262    1.0000 </r>
       <r>  -12.1631    1.0000 </r>
       <r>  -11.5120    1.0000 </r>
       <r>  -11.4306    1.0000 </r>
       <r>  -10.9292    1.0000 </r>
       <r>  -10.8790    1.0000 </r>
       <r>  -10.6046    1.0000 </r>
       <r>  -10.5498    1.0000 </r>
       <r>   -4.8246    1.0000 </r>
       <r>   -4.7936    1.0000 </r>
       <r>   -4.7769    1.0000 </r>
       <r>   -4.7274    1.0000 </r>
       <r>   -4.6202    1.0000 </r>
       <r>   -4.4092    1.0000 </r>
       <r>   -4.0504    1.0000 </r>
       <r>   -3.9957    1.0000 </r>
       <r>   -3.6686    1.0000 </r>
       <r>   -3.6081    1.0000 </r>
       <r>   -3.3260    1.0000 </r>
       <r>   -3.2847    1.0000 </r>
       <r>   -3.2638    1.0000 </r>
       <r>   -3.2384    1.0000 </r>
       <r>   -3.1576    1.0000 </r>
       <r>   -3.1311    1.0000 </r>
       <r>   -2.6906    1.0000 </r>
       <r>   -2.5934    1.0000 </r>
       <r>   -1.9871    1.0000 </r>
       <r>   -1.9081    1.0000 </r>
       <r>   -1.6834    1.0000 </r>
       <r>   -1.6299    1.0000 </r>
       <r>   -1.1498    1.0000 </r>
       <r>   -0.9011    1.0000 </r>
       <r>   -0.7896    1.0000 </r>
       <r>   -0.7391    1.0000 </r>
       <r>   -0.1476    1.0000 </r>
       <r>   -0.1043    1.0000 </r>
       <r>    1.0327    0.0774 </r>
       <r>    1.0731    0.0051 </r>
       <r>    1.1190    0.0001 </r>
       <r>    1.3694    0.0000 </r>
       <r>    1.5339    0.0000 </r>
       <r>    1.8136    0.0000 </r>
       <r>    1.8707    0.0000 </r>
       <r>    1.9224    0.0000 </r>
       <r>    1.9425    0.0000 </r>
       <r>    1.9755    0.0000 </r>
       <r>    2.1695    0.0000 </r>
       <r>    2.4925    0.0000 </r>
      </set>
      <set comment="kpoint 15">
       <r>  -12.4896    1.0000 </r>
       <r>  -12.4254    1.0000 </r>
       <r>  -11.6994    1.0000 </r>
       <r>  -11.6140    1.0000 </r>
       <r>  -10.9628    1.0000 </r>
       <r>  -10.9122    1.0000 </r>
       <r>  -10.6291    1.0000 </r>
       <r>  -10.5736    1.0000 </r>
       <r>   -4.9413    1.0000 </r>
       <r>   -4.8812    1.0000 </r>
       <r>   -4.8041    1.0000 </r>
       <r>   -4.7902    1.0000 </r>
       <r>   -4.7546    1.0000 </r>
       <r>   -4.5347    1.0000 </r>
       <r>   -3.8440    1.0000 </r>
       <r>   -3.7776    1.0000 </r>
       <r>   -3.3602    1.0000 </r>
       <r>   -3.3154    1.0000 </r>
       <r>   -3.2966    1.0000 </r>
       <r>   -3.2289    1.0000 </r>
       <r>   -3.2146    1.0000 </r>
       <r>   -3.1134    1.0000 </r>
       <r>   -3.0320    1.0000 </r>
       <r>   -2.8219    1.0000 </r>
       <r>   -2.3460    1.0000 </r>
       <r>   -2.2819    1.0000 </r>
       <r>   -1.9663    1.0000 </r>
       <r>   -1.8621    1.0000 </r>
       <r>   -1.5379    1.0000 </r>
       <r>   -1.4922    1.0000 </r>
       <r>   -1.0785    1.0000 </r>
       <r>   -0.9014    1.0000 </r>
       <r>   -0.8115    1.0000 </r>
       <r>   -0.6795    1.0000 </r>
       <r>   -0.2027    1.0000 </r>
       <r>   -0.1572    1.0000 </r>
       <r>    0.9869    0.4496 </r>
       <r>    1.1028    0.0003 </r>
       <r>    1.1432    0.0000 </r>
       <r>    1.4960    0.0000 </r>
       <r>    1.6766    0.0000 </r>
       <r>    1.9109    0.0000 </r>
       <r>    1.9213    0.0000 </r>
       <r>    1.9887    0.0000 </r>
       <r>    2.0343    0.0000 </r>
       <r>    2.0847    0.0000 </r>
       <r>    2.1918    0.0000 </r>
       <r>    2.3640    0.0000 </r>
      </set>
      <set comment="kpoint 16">
       <r>  -12.7239    1.0000 </r>
       <r>  -12.6589    1.0000 </r>
       <r>  -11.8671    1.0000 </r>
       <r>  -11.7784    1.0000 </r>
       <r>  -11.0257    1.0000 </r>
       <r>  -10.9743    1.0000 </r>
       <r>  -10.6766    1.0000 </r>
       <r>  -10.6198    1.0000 </r>
       <r>   -5.1777    1.0000 </r>
       <r>   -5.1225    1.0000 </r>
       <r>   -4.9999    1.0000 </r>
       <r>   -4.7896    1.0000 </r>
       <r>   -4.7312    1.0000 </r>
       <r>   -4.7278    1.0000 </r>
       <r>   -3.6640    1.0000 </r>
       <r>   -3.5736    1.0000 </r>
       <r>   -3.1379    1.0000 </r>
       <r>   -3.0530    1.0000 </r>
       <r>   -3.0367    1.0000 </r>
       <r>   -2.9915    1.0000 </r>
       <r>   -2.9526    1.0000 </r>
       <r>   -2.9492    1.0000 </r>
       <r>   -2.8306    1.0000 </r>
       <r>   -2.5451    1.0000 </r>
       <r>   -1.9625    1.0000 </r>
       <r>   -1.9372    1.0000 </r>
       <r>   -1.9144    1.0000 </r>
       <r>   -1.7861    1.0000 </r>
       <r>   -1.5639    1.0000 </r>
       <r>   -1.5253    1.0000 </r>
       <r>   -1.0526    1.0000 </r>
       <r>   -0.8856    1.0000 </r>
       <r>   -0.7662    1.0000 </r>
       <r>   -0.5608    1.0000 </r>
       <r>   -0.2897    1.0000 </r>
       <r>   -0.2351    1.0000 </r>
       <r>    0.8108    1.0000 </r>
       <r>    1.2120    0.0000 </r>
       <r>    1.2629    0.0000 </r>
       <r>    1.7436    0.0000 </r>
       <r>    1.8983    0.0000 </r>
       <r>    2.0055    0.0000 </r>
       <r>    2.0532    0.0000 </r>
       <r>    2.0849    0.0000 </r>
       <r>    2.1418    0.0000 </r>
       <r>    2.2260    0.0000 </r>
       <r>    2.3267    0.0000 </r>
       <r>    2.3774    0.0000 </r>
      </set>
      <set comment="kpoint 17">
       <r>  -12.9201    1.0000 </r>
       <r>  -12.8546    1.0000 </r>
       <r>  -12.0083    1.0000 </r>
       <r>  -11.9170    1.0000 </r>
       <r>  -11.0983    1.0000 </r>
       <r>  -11.0462    1.0000 </r>
       <r>  -10.7327    1.0000 </r>
       <r>  -10.6746    1.0000 </r>
       <r>   -5.3986    1.0000 </r>
       <r>   -5.3457    1.0000 </r>
       <r>   -5.1966    1.0000 </r>
       <r>   -4.9173    1.0000 </r>
       <r>   -4.7967    1.0000 </r>
       <r>   -4.7246    1.0000 </r>
       <r>   -3.6506    1.0000 </r>
       <r>   -3.5670    1.0000 </r>
       <r>   -3.0029    1.0000 </r>
       <r>   -2.9317    1.0000 </r>
       <r>   -2.6638    1.0000 </r>
       <r>   -2.6291    1.0000 </r>
       <r>   -2.5864    1.0000 </r>
       <r>   -2.5091    1.0000 </r>
       <r>   -2.4286    1.0000 </r>
       <r>   -2.2901    1.0000 </r>
       <r>   -1.9187    1.0000 </r>
       <r>   -1.7189    1.0000 </r>
       <r>   -1.6738    1.0000 </r>
       <r>   -1.6380    1.0000 </r>
       <r>   -1.6222    1.0000 </r>
       <r>   -1.5809    1.0000 </r>
       <r>   -1.0516    1.0000 </r>
       <r>   -0.8735    1.0000 </r>
       <r>   -0.7271    1.0000 </r>
       <r>   -0.4561    1.0000 </r>
       <r>   -0.3646    1.0000 </r>
       <r>   -0.2983    1.0000 </r>
       <r>    0.6512    1.0000 </r>
       <r>    1.3154    0.0000 </r>
       <r>    1.3759    0.0000 </r>
       <r>    1.9338    0.0000 </r>
       <r>    2.0695    0.0000 </r>
       <r>    2.0925    0.0000 </r>
       <r>    2.1548    0.0000 </r>
       <r>    2.2428    0.0000 </r>
       <r>    2.3349    0.0000 </r>
       <r>    2.3736    0.0000 </r>
       <r>    2.4621    0.0000 </r>
       <r>    2.7255    0.0000 </r>
      </set>
      <set comment="kpoint 18">
       <r>  -13.0721    1.0000 </r>
       <r>  -13.0063    1.0000 </r>
       <r>  -12.1181    1.0000 </r>
       <r>  -12.0247    1.0000 </r>
       <r>  -11.1651    1.0000 </r>
       <r>  -11.1125    1.0000 </r>
       <r>  -10.7852    1.0000 </r>
       <r>  -10.7259    1.0000 </r>
       <r>   -5.5754    1.0000 </r>
       <r>   -5.5233    1.0000 </r>
       <r>   -5.3575    1.0000 </r>
       <r>   -5.0745    1.0000 </r>
       <r>   -4.8195    1.0000 </r>
       <r>   -4.7344    1.0000 </r>
       <r>   -3.6820    1.0000 </r>
       <r>   -3.6049    1.0000 </r>
       <r>   -2.8394    1.0000 </r>
       <r>   -2.7832    1.0000 </r>
       <r>   -2.5039    1.0000 </r>
       <r>   -2.3190    1.0000 </r>
       <r>   -2.2812    1.0000 </r>
       <r>   -2.0439    1.0000 </r>
       <r>   -1.9339    1.0000 </r>
       <r>   -1.9186    1.0000 </r>
       <r>   -1.8518    1.0000 </r>
       <r>   -1.7872    1.0000 </r>
       <r>   -1.7519    1.0000 </r>
       <r>   -1.6785    1.0000 </r>
       <r>   -1.3708    1.0000 </r>
       <r>   -1.3334    1.0000 </r>
       <r>   -1.0682    1.0000 </r>
       <r>   -0.9067    1.0000 </r>
       <r>   -0.7251    1.0000 </r>
       <r>   -0.4150    1.0000 </r>
       <r>   -0.3915    1.0000 </r>
       <r>   -0.3426    1.0000 </r>
       <r>    0.5220    1.0000 </r>
       <r>    1.3797    0.0000 </r>
       <r>    1.4405    0.0000 </r>
       <r>    1.7938    0.0000 </r>
       <r>    1.9022    0.0000 </r>
       <r>    2.4454    0.0000 </r>
       <r>    2.5193    0.0000 </r>
       <r>    2.5688    0.0000 </r>
       <r>    2.6840    0.0000 </r>
       <r>    2.7475    0.0000 </r>
       <r>    2.8534    0.0000 </r>
       <r>    3.0380    0.0000 </r>
      </set>
      <set comment="kpoint 19">
       <r>  -13.1755    1.0000 </r>
       <r>  -13.1096    1.0000 </r>
       <r>  -12.1929    1.0000 </r>
       <r>  -12.0983    1.0000 </r>
       <r>  -11.2152    1.0000 </r>
       <r>  -11.1624    1.0000 </r>
       <r>  -10.8250    1.0000 </r>
       <r>  -10.7650    1.0000 </r>
       <r>   -5.6975    1.0000 </r>
       <r>   -5.6455    1.0000 </r>
       <r>   -5.4704    1.0000 </r>
       <r>   -5.1856    1.0000 </r>
       <r>   -4.8443    1.0000 </r>
       <r>   -4.7500    1.0000 </r>
       <r>   -3.7151    1.0000 </r>
       <r>   -3.6417    1.0000 </r>
       <r>   -2.6874    1.0000 </r>
       <r>   -2.6406    1.0000 </r>
       <r>   -2.3830    1.0000 </r>
       <r>   -2.0897    1.0000 </r>
       <r>   -2.0541    1.0000 </r>
       <r>   -1.9510    1.0000 </r>
       <r>   -1.8724    1.0000 </r>
       <r>   -1.8375    1.0000 </r>
       <r>   -1.8192    1.0000 </r>
       <r>   -1.6831    1.0000 </r>
       <r>   -1.3961    1.0000 </r>
       <r>   -1.3391    1.0000 </r>
       <r>   -1.2160    1.0000 </r>
       <r>   -1.1800    1.0000 </r>
       <r>   -1.0902    1.0000 </r>
       <r>   -0.9806    1.0000 </r>
       <r>   -0.7445    1.0000 </r>
       <r>   -0.4500    1.0000 </r>
       <r>   -0.3892    1.0000 </r>
       <r>   -0.3670    1.0000 </r>
       <r>    0.4309    1.0000 </r>
       <r>    1.3916    0.0000 </r>
       <r>    1.4379    0.0000 </r>
       <r>    1.7283    0.0000 </r>
       <r>    1.7980    0.0000 </r>
       <r>    2.7475    0.0000 </r>
       <r>    2.8644    0.0000 </r>
       <r>    2.8945    0.0000 </r>
       <r>    3.0861    0.0000 </r>
       <r>    3.1560    0.0000 </r>
       <r>    3.1805    0.0000 </r>
       <r>    3.1894    0.0000 </r>
      </set>
      <set comment="kpoint 20">
       <r>  -13.2279    1.0000 </r>
       <r>  -13.1619    1.0000 </r>
       <r>  -12.2308    1.0000 </r>
       <r>  -12.1356    1.0000 </r>
       <r>  -11.2420    1.0000 </r>
       <r>  -11.1889    1.0000 </r>
       <r>  -10.8463    1.0000 </r>
       <r>  -10.7859    1.0000 </r>
       <r>   -5.7596    1.0000 </r>
       <r>   -5.7076    1.0000 </r>
       <r>   -5.5284    1.0000 </r>
       <r>   -5.2428    1.0000 </r>
       <r>   -4.8596    1.0000 </r>
       <r>   -4.7607    1.0000 </r>
       <r>   -3.7347    1.0000 </r>
       <r>   -3.6629    1.0000 </r>
       <r>   -2.5919    1.0000 </r>
       <r>   -2.5495    1.0000 </r>
       <r>   -2.3160    1.0000 </r>
       <r>   -1.9788    1.0000 </r>
       <r>   -1.9671    1.0000 </r>
       <r>   -1.9324    1.0000 </r>
       <r>   -1.9175    1.0000 </r>
       <r>   -1.8833    1.0000 </r>
[...]
       <r>   -4.8196    1.0000 </r>
       <r>   -4.6478    1.0000 </r>
       <r>   -4.5617    1.0000 </r>
       <r>   -4.4454    1.0000 </r>
       <r>   -3.7511    1.0000 </r>
       <r>   -3.6921    1.0000 </r>
       <r>   -3.4452    1.0000 </r>
       <r>   -3.3465    1.0000 </r>
       <r>   -3.3064    1.0000 </r>
       <r>   -3.3018    1.0000 </r>
       <r>   -3.0669    1.0000 </r>
       <r>   -2.8599    1.0000 </r>
       <r>   -2.3919    1.0000 </r>
       <r>   -2.3004    1.0000 </r>
       <r>   -2.1651    1.0000 </r>
       <r>   -2.0921    1.0000 </r>
       <r>   -1.4666    1.0000 </r>
       <r>   -1.4600    1.0000 </r>
       <r>   -1.4237    1.0000 </r>
       <r>   -1.4147    1.0000 </r>
       <r>   -1.3532    1.0000 </r>
       <r>   -1.1861    1.0000 </r>
       <r>   -1.0853    1.0000 </r>
       <r>   -0.9604    1.0000 </r>
       <r>   -0.8848    1.0000 </r>
       <r>   -0.8587    1.0000 </r>
       <r>   -0.8147    1.0000 </r>
       <r>   -0.7193    1.0000 </r>
       <r>    0.6861    1.0000 </r>
       <r>    1.3110    0.0000 </r>
       <r>    1.4800    0.0000 </r>
       <r>    1.5333    0.0000 </r>
       <r>    1.6853    0.0000 </r>
       <r>    1.8846    0.0000 </r>
       <r>    1.9403    0.0000 </r>
       <r>    1.9673    0.0000 </r>
       <r>    2.0581    0.0000 </r>
       <r>    2.1261    0.0000 </r>
       <r>    2.1838    0.0000 </r>
       <r>    2.2677    0.0000 </r>
      </set>
      <set comment="kpoint 100">
       <r>  -12.5666    1.0000 </r>
       <r>  -12.5020    1.0000 </r>
       <r>  -12.2706    1.0000 </r>
       <r>  -12.2073    1.0000 </r>
       <r>  -11.7545    1.0000 </r>
       <r>  -11.6681    1.0000 </r>
       <r>  -11.5444    1.0000 </r>
       <r>  -11.4626    1.0000 </r>
       <r>   -4.8625    1.0000 </r>
       <r>   -4.6782    1.0000 </r>
       <r>   -4.6014    1.0000 </r>
       <r>   -4.4681    1.0000 </r>
       <r>   -3.7525    1.0000 </r>
       <r>   -3.6981    1.0000 </r>
       <r>   -3.4626    1.0000 </r>
       <r>   -3.3166    1.0000 </r>
       <r>   -3.3068    1.0000 </r>
       <r>   -3.2637    1.0000 </r>
       <r>   -3.0771    1.0000 </r>
       <r>   -2.8668    1.0000 </r>
       <r>   -2.1171    1.0000 </r>
       <r>   -2.0664    1.0000 </r>
       <r>   -1.8953    1.0000 </r>
       <r>   -1.8477    1.0000 </r>
       <r>   -1.5848    1.0000 </r>
       <r>   -1.3935    1.0000 </r>
       <r>   -1.3711    1.0000 </r>
       <r>   -1.3501    1.0000 </r>
       <r>   -1.2780    1.0000 </r>
       <r>   -1.2070    1.0000 </r>
       <r>   -1.1610    1.0000 </r>
       <r>   -1.0679    1.0000 </r>
       <r>   -1.0222    1.0000 </r>
       <r>   -0.9283    1.0000 </r>
       <r>   -0.9113    1.0000 </r>
       <r>   -0.7513    1.0000 </r>
       <r>    0.6467    1.0000 </r>
       <r>    1.3473    0.0000 </r>
       <r>    1.5090    0.0000 </r>
       <r>    1.5886    0.0000 </r>
       <r>    1.7272    0.0000 </r>
       <r>    1.9878    0.0000 </r>
       <r>    2.0186    0.0000 </r>
       <r>    2.0574    0.0000 </r>
       <r>    2.1079    0.0000 </r>
       <r>    2.2802    0.0000 </r>
       <r>    2.3095    0.0000 </r>
       <r>    2.3779    0.0000 </r>
      </set>
     </set>
    </set>
   </array>
  </eigenvalues>
  <separator name="orbital magnetization" >
   <v name="MAGDIPOLOUT">      0.00000000      0.00000000      0.00000000</v>
  </separator>
  <dos>
   <i name="efermi">      0.98238586 </i>
   <total>
    <array>
     <dimension dim="1">gridpoints</dimension>
     <dimension dim="2">spin</dimension>
     <field>energy</field>
     <field>total</field>
     <field>integrated</field>
     <set>
      <set comment="spin 1">
       <r>   -14.0564     0.0000     0.0000 </r>
       <r>   -13.9956     0.0000     0.0000 </r>
       <r>   -13.9349     0.0000     0.0000 </r>
       <r>   -13.8741     0.0000     0.0000 </r>
       <r>   -13.8134     0.0000     0.0000 </r>
       <r>   -13.7526     0.0000     0.0000 </r>
       <r>   -13.6919     0.0000     0.0000 </r>
       <r>   -13.6311     0.0000     0.0000 </r>
       <r>   -13.5703     0.0000     0.0000 </r>
       <r>   -13.5096     0.0000     0.0000 </r>
       <r>   -13.4488     0.0000     0.0000 </r>
       <r>   -13.3881     0.0000     0.0000 </r>
       <r>   -13.3273     0.0016     0.0001 </r>
       <r>   -13.2666     0.0937     0.0058 </r>
       <r>   -13.2058     0.6502     0.0453 </r>
       <r>   -13.1451     1.5636     0.1403 </r>
       <r>   -13.0843     2.0245     0.2633 </r>
       <r>   -13.0236     2.0730     0.3892 </r>
       <r>   -12.9628     2.2283     0.5246 </r>
       <r>   -12.9020     2.1294     0.6540 </r>
       <r>   -12.8413     2.1151     0.7825 </r>
       <r>   -12.7805     2.2311     0.9180 </r>
       <r>   -12.7198     2.2903     1.0572 </r>
       <r>   -12.6590     2.4597     1.2066 </r>
       <r>   -12.5983     2.0299     1.3299 </r>
       <r>   -12.5375     2.0199     1.4527 </r>
       <r>   -12.4768     2.8233     1.6242 </r>
       <r>   -12.4160     2.7807     1.7931 </r>
       <r>   -12.3552     2.0208     1.9159 </r>
       <r>   -12.2945     2.1271     2.0451 </r>
       <r>   -12.2337     3.0563     2.2308 </r>
       <r>   -12.1730     4.2283     2.4877 </r>
       <r>   -12.1122     5.2986     2.8096 </r>
       <r>   -12.0515     5.5582     3.1473 </r>
       <r>   -11.9907     4.7579     3.4364 </r>
       <r>   -11.9300     5.7879     3.7880 </r>
       <r>   -11.8692     7.1738     4.2239 </r>
       <r>   -11.8084     6.7334     4.6329 </r>
       <r>   -11.7477     5.4055     4.9614 </r>
       <r>   -11.6869     6.1299     5.3338 </r>
       <r>   -11.6262     7.3628     5.7811 </r>
       <r>   -11.5654     7.5896     6.2422 </r>
       <r>   -11.5047     7.4926     6.6974 </r>
       <r>   -11.4439     7.7172     7.1663 </r>
       <r>   -11.3832     7.9941     7.6520 </r>
       <r>   -11.3224     9.7688     8.2455 </r>
       <r>   -11.2617    10.7818     8.9005 </r>
       <r>   -11.2009    12.1273     9.6373 </r>
       <r>   -11.1401    12.9379    10.4234 </r>
       <r>   -11.0794    11.5806    11.1270 </r>
       <r>   -11.0186    11.1702    11.8056 </r>
       <r>   -10.9579    10.7004    12.4557 </r>
       <r>   -10.8971    10.6971    13.1056 </r>
       <r>   -10.8364    10.8359    13.7639 </r>
       <r>   -10.7756    10.9358    14.4283 </r>
       <r>   -10.7149     9.6456    15.0144 </r>
       <r>   -10.6541     7.4381    15.4663 </r>
       <r>   -10.5933     5.5984    15.8064 </r>
       <r>   -10.5326     2.6952    15.9701 </r>
       <r>   -10.4718     0.4772    15.9991 </r>
       <r>   -10.4111     0.0142    16.0000 </r>
       <r>   -10.3503     0.0000    16.0000 </r>
       <r>   -10.2896     0.0000    16.0000 </r>
       <r>   -10.2288     0.0000    16.0000 </r>
       <r>   -10.1681     0.0000    16.0000 </r>
       <r>   -10.1073     0.0000    16.0000 </r>
       <r>   -10.0465     0.0000    16.0000 </r>
       <r>    -9.9858     0.0000    16.0000 </r>
       <r>    -9.9250     0.0000    16.0000 </r>
       <r>    -9.8643     0.0000    16.0000 </r>
       <r>    -9.8035     0.0000    16.0000 </r>
       <r>    -9.7428     0.0000    16.0000 </r>
       <r>    -9.6820     0.0000    16.0000 </r>
       <r>    -9.6213     0.0000    16.0000 </r>
       <r>    -9.5605     0.0000    16.0000 </r>
       <r>    -9.4998     0.0000    16.0000 </r>
       <r>    -9.4390     0.0000    16.0000 </r>
       <r>    -9.3782     0.0000    16.0000 </r>
       <r>    -9.3175     0.0000    16.0000 </r>
       <r>    -9.2567     0.0000    16.0000 </r>
       <r>    -9.1960     0.0000    16.0000 </r>
       <r>    -9.1352     0.0000    16.0000 </r>
       <r>    -9.0745     0.0000    16.0000 </r>
       <r>    -9.0137     0.0000    16.0000 </r>
       <r>    -8.9530     0.0000    16.0000 </r>
       <r>    -8.8922     0.0000    16.0000 </r>
       <r>    -8.8314     0.0000    16.0000 </r>
       <r>    -8.7707     0.0000    16.0000 </r>
       <r>    -8.7099     0.0000    16.0000 </r>
       <r>    -8.6492     0.0000    16.0000 </r>
       <r>    -8.5884     0.0000    16.0000 </r>
       <r>    -8.5277     0.0000    16.0000 </r>
       <r>    -8.4669     0.0000    16.0000 </r>
       <r>    -8.4062     0.0000    16.0000 </r>
       <r>    -8.3454     0.0000    16.0000 </r>
       <r>    -8.2847     0.0000    16.0000 </r>
       <r>    -8.2239     0.0000    16.0000 </r>
       <r>    -8.1631     0.0000    16.0000 </r>
       <r>    -8.1024     0.0000    16.0000 </r>
       <r>    -8.0416     0.0000    16.0000 </r>
       <r>    -7.9809     0.0000    16.0000 </r>
       <r>    -7.9201     0.0000    16.0000 </r>
       <r>    -7.8594     0.0000    16.0000 </r>
       <r>    -7.7986     0.0000    16.0000 </r>
       <r>    -7.7379     0.0000    16.0000 </r>
       <r>    -7.6771     0.0000    16.0000 </r>
       <r>    -7.6163     0.0000    16.0000 </r>
       <r>    -7.5556     0.0000    16.0000 </r>
       <r>    -7.4948     0.0000    16.0000 </r>
       <r>    -7.4341     0.0000    16.0000 </r>
       <r>    -7.3733     0.0000    16.0000 </r>
       <r>    -7.3126     0.0000    16.0000 </r>
       <r>    -7.2518     0.0000    16.0000 </r>
       <r>    -7.1911     0.0000    16.0000 </r>
       <r>    -7.1303     0.0000    16.0000 </r>
       <r>    -7.0695     0.0000    16.0000 </r>
       <r>    -7.0088     0.0000    16.0000 </r>
       <r>    -6.9480     0.0000    16.0000 </r>
       <r>    -6.8873     0.0000    16.0000 </r>
       <r>    -6.8265     0.0000    16.0000 </r>
       <r>    -6.7658     0.0000    16.0000 </r>
       <r>    -6.7050     0.0000    16.0000 </r>
       <r>    -6.6443     0.0000    16.0000 </r>
       <r>    -6.5835     0.0000    16.0000 </r>
       <r>    -6.5228     0.0000    16.0000 </r>
       <r>    -6.4620     0.0000    16.0000 </r>
       <r>    -6.4012     0.0000    16.0000 </r>
       <r>    -6.3405     0.0000    16.0000 </r>
       <r>    -6.2797     0.0000    16.0000 </r>
       <r>    -6.2190     0.0000    16.0000 </r>
       <r>    -6.1582     0.0000    16.0000 </r>
       <r>    -6.0975     0.0000    16.0000 </r>
       <r>    -6.0367     0.0000    16.0000 </r>
       <r>    -5.9760     0.0000    16.0000 </r>
       <r>    -5.9152     0.0000    16.0000 </r>
       <r>    -5.8544     0.0133    16.0008 </r>
       <r>    -5.7937     0.4093    16.0257 </r>
       <r>    -5.7329     1.8470    16.1379 </r>
       <r>    -5.6722     2.9012    16.3142 </r>
       <r>    -5.6114     3.1721    16.5069 </r>
       <r>    -5.5507     3.5708    16.7238 </r>
       <r>    -5.4899     3.8415    16.9572 </r>
       <r>    -5.4292     4.7308    17.2446 </r>
       <r>    -5.3684     5.5408    17.5813 </r>
       <r>    -5.3077     4.7295    17.8686 </r>
       <r>    -5.2469     4.0277    18.1133 </r>
       <r>    -5.1861     5.2792    18.4341 </r>
       <r>    -5.1254     8.1469    18.9290 </r>
       <r>    -5.0646     8.5792    19.4502 </r>
       <r>    -5.0039     7.7311    19.9199 </r>
       <r>    -4.9431     8.9076    20.4611 </r>
       <r>    -4.8824     8.7390    20.9921 </r>
       <r>    -4.8216    11.7454    21.7057 </r>
       <r>    -4.7609    16.8295    22.7281 </r>
       <r>    -4.7001    18.9015    23.8765 </r>
       <r>    -4.6393    15.9704    24.8468 </r>
       <r>    -4.5786    12.9457    25.6333 </r>
       <r>    -4.5178     9.4894    26.2098 </r>
       <r>    -4.4571     7.6644    26.6755 </r>
       <r>    -4.3963     6.2267    27.0538 </r>
       <r>    -4.3356     4.7899    27.3448 </r>
       <r>    -4.2748     4.6425    27.6269 </r>
       <r>    -4.2141     3.7435    27.8543 </r>
       <r>    -4.1533     2.0456    27.9786 </r>
       <r>    -4.0925     1.6369    28.0780 </r>
       <r>    -4.0318     2.9909    28.2597 </r>
       <r>    -3.9710     4.0035    28.5030 </r>
       <r>    -3.9103     5.5322    28.8391 </r>
       <r>    -3.8495     7.8541    29.3163 </r>
       <r>    -3.7888    11.1015    29.9907 </r>
       <r>    -3.7280    17.8430    31.0748 </r>
       <r>    -3.6673    23.0324    32.4741 </r>
       <r>    -3.6065    21.5141    33.7812 </r>
       <r>    -3.5458    14.7043    34.6746 </r>
       <r>    -3.4850     9.3050    35.2399 </r>
       <r>    -3.4242     6.5193    35.6360 </r>
       <r>    -3.3635     5.1504    35.9489 </r>
       <r>    -3.3027     7.1985    36.3862 </r>
       <r>    -3.2420     8.4037    36.8968 </r>
       <r>    -3.1812     7.6686    37.3627 </r>
       <r>    -3.1205     9.1559    37.9190 </r>
       <r>    -3.0597    11.9938    38.6477 </r>
       <r>    -2.9990    13.4372    39.4640 </r>
       <r>    -2.9382    11.5260    40.1643 </r>
       <r>    -2.8774    11.3693    40.8550 </r>
       <r>    -2.8167    11.3184    41.5427 </r>
       <r>    -2.7559    11.0621    42.2148 </r>
       <r>    -2.6952     9.2853    42.7789 </r>
       <r>    -2.6344    10.3925    43.4103 </r>
       <r>    -2.5737    12.2244    44.1530 </r>
       <r>    -2.5129    12.2094    44.8948 </r>
       <r>    -2.4522    11.4643    45.5913 </r>
       <r>    -2.3914     9.9203    46.1940 </r>
       <r>    -2.3306     7.5815    46.6546 </r>
       <r>    -2.2699     7.4963    47.1100 </r>
       <r>    -2.2091     6.8506    47.5263 </r>
       <r>    -2.1484     5.4609    47.8580 </r>
       <r>    -2.0876     5.3782    48.1848 </r>
       <r>    -2.0269     6.2289    48.5632 </r>
       <r>    -1.9661    10.5292    49.2029 </r>
       <r>    -1.9054    16.8722    50.2280 </r>
       <r>    -1.8446    17.0969    51.2667 </r>
       <r>    -1.7839    15.0829    52.1831 </r>
       <r>    -1.7231    13.8073    53.0219 </r>
       <r>    -1.6623    17.1801    54.0657 </r>
       <r>    -1.6016    19.4155    55.2453 </r>
       <r>    -1.5408    17.4255    56.3040 </r>
       <r>    -1.4801    14.6306    57.1929 </r>
       <r>    -1.4193    15.4615    58.1322 </r>
       <r>    -1.3586    13.1719    58.9325 </r>
       <r>    -1.2978    10.8818    59.5936 </r>
       <r>    -1.2371    11.3350    60.2823 </r>
       <r>    -1.1763    12.0136    61.0122 </r>
       <r>    -1.1155    11.2716    61.6970 </r>
       <r>    -1.0548    12.9241    62.4822 </r>
       <r>    -0.9940     9.7819    63.0765 </r>
       <r>    -0.9333     9.4294    63.6494 </r>
       <r>    -0.8725    12.5842    64.4139 </r>
       <r>    -0.8118    10.1127    65.0283 </r>
       <r>    -0.7510    12.5303    65.7896 </r>
       <r>    -0.6903    14.5341    66.6726 </r>
       <r>    -0.6295    10.4936    67.3102 </r>
       <r>    -0.5688    10.5630    67.9519 </r>
       <r>    -0.5080    13.0290    68.7435 </r>
       <r>    -0.4472    13.9571    69.5915 </r>
       <r>    -0.3865    14.2521    70.4573 </r>
       <r>    -0.3257    10.6073    71.1018 </r>
       <r>    -0.2650     6.1882    71.4778 </r>
       <r>    -0.2042     4.1428    71.7295 </r>
       <r>    -0.1435     2.7252    71.8950 </r>
       <r>    -0.0827     1.4571    71.9835 </r>
       <r>    -0.0220     0.2634    71.9996 </r>
       <r>     0.0388     0.0074    72.0000 </r>
       <r>     0.0996     0.0000    72.0000 </r>
       <r>     0.1603     0.0000    72.0000 </r>
       <r>     0.2211     0.0000    72.0000 </r>
       <r>     0.2818     0.0013    72.0001 </r>
       <r>     0.3426     0.0872    72.0054 </r>
       <r>     0.4033     0.6740    72.0463 </r>
       <r>     0.4641     1.2969    72.1251 </r>
       <r>     0.5248     1.4991    72.2162 </r>
       <r>     0.5856     1.7525    72.3227 </r>
       <r>     0.6464     2.1501    72.4533 </r>
       <r>     0.7071     2.3457    72.5958 </r>
       <r>     0.7679     1.6486    72.6960 </r>
       <r>     0.8286     1.6059    72.7935 </r>
       <r>     0.8894     1.4913    72.8841 </r>
       <r>     0.9501     1.0679    72.9490 </r>
       <r>     1.0109     1.7273    73.0540 </r>
       <r>     1.0716     2.4829    73.2048 </r>
       <r>     1.1324     4.5584    73.4818 </r>
       <r>     1.1931     6.7050    73.8891 </r>
       <r>     1.2539     8.4244    74.4010 </r>
       <r>     1.3147    11.6917    75.1113 </r>
       <r>     1.3754    16.6709    76.1241 </r>
       <r>     1.4362    21.1289    77.4078 </r>
       <r>     1.4969    18.8189    78.5512 </r>
       <r>     1.5577    13.0402    79.3434 </r>
       <r>     1.6184    11.0934    80.0174 </r>
       <r>     1.6792    19.2869    81.1892 </r>
       <r>     1.7399    23.7820    82.6341 </r>
       <r>     1.8007    18.1472    83.7366 </r>
       <r>     1.8615    13.8261    84.5766 </r>
       <r>     1.9222    14.4765    85.4561 </r>
       <r>     1.9830    15.2896    86.3850 </r>
       <r>     2.0437    15.7437    87.3415 </r>
       <r>     2.1045    15.5273    88.2849 </r>
       <r>     2.1652    13.7690    89.1214 </r>
       <r>     2.2260    13.5577    89.9451 </r>
       <r>     2.2867    14.3143    90.8148 </r>
       <r>     2.3475    12.2985    91.5620 </r>
       <r>     2.4082     9.7340    92.1534 </r>
       <r>     2.4690     7.8728    92.6317 </r>
       <r>     2.5298     6.4043    93.0208 </r>
       <r>     2.5905     5.4868    93.3542 </r>
       <r>     2.6513     4.7411    93.6422 </r>
       <r>     2.7120     4.4608    93.9132 </r>
       <r>     2.7728     4.4455    94.1833 </r>
       <r>     2.8335     4.5042    94.4570 </r>
       <r>     2.8943     4.3109    94.7189 </r>
       <r>     2.9550     3.0284    94.9029 </r>
       <r>     3.0158     2.5829    95.0598 </r>
       <r>     3.0766     3.7814    95.2895 </r>
       <r>     3.1373     4.6273    95.5707 </r>
       <r>     3.1981     3.6035    95.7896 </r>
       <r>     3.2588     1.5246    95.8822 </r>
       <r>     3.3196     0.8546    95.9341 </r>
       <r>     3.3803     0.9141    95.9897 </r>
       <r>     3.4411     0.1671    95.9998 </r>
       <r>     3.5018     0.0028    96.0000 </r>
       <r>     3.5626     0.0000    96.0000 </r>
       <r>     3.6234     0.0000    96.0000 </r>
       <r>     3.6841     0.0000    96.0000 </r>
       <r>     3.7449     0.0000    96.0000 </r>
       <r>     3.8056     0.0000    96.0000 </r>
       <r>     3.8664     0.0000    96.0000 </r>
       <r>     3.9271     0.0000    96.0000 </r>
       <r>     3.9879     0.0000    96.0000 </r>
       <r>     4.0486     0.0000    96.0000 </r>
       <r>     4.1094     0.0000    96.0000 </r>
       <r>     4.1701     0.0000    96.0000 </r>
      </set>
     </set>
    </array>
   </total>
  </dos>
 </calculation>
 <structure name="finalpos" >
  <crystal>
   <varray name="basis" >
    <v>       3.55100000       0.00000000       0.00000000 </v>
    <v>       0.00000000       6.14900000       0.00000000 </v>
    <v>       0.00000000       0.00000000      35.00000000 </v>
   </varray>
   <i name="volume">    764.22846500 </i>
   <varray name="rec_basis" >
    <v>       0.28161081       0.00000000       0.00000000 </v>
    <v>       0.00000000       0.16262807       0.00000000 </v>
    <v>       0.00000000       0.00000000       0.02857143 </v>
   </varray>
  </crystal>
  <varray name="positions" >
   <v>       0.00000000       0.66668737       0.16062496 </v>
   <v>       0.00000000       0.66666382       0.05883366 </v>
   <v>       0.50000000       0.16666917       0.16062661 </v>
   <v>       0.50000000       0.16667825       0.05883342 </v>
   <v>       0.00000000       0.33312661       0.37979062 </v>
   <v>       0.00000000       0.33349109       0.27787705 </v>
   <v>       0.50000000       0.83351400       0.37981714 </v>
   <v>       0.50000000       0.83318721       0.27787588 </v>
   <v>       0.00000000       0.00002280       0.10965813 </v>
   <v>       0.50000000       0.50002412       0.10966283 </v>
   <v>       0.00000000       0.99988989       0.32872400 </v>
   <v>       0.50000000       0.49995597       0.32885470 </v>
   <v>       0.50000000       0.50008971       0.49967442 </v>
  </varray>
 </structure>
</modeling>
