<?xml version="1.0" encoding="ISO-8859-1"?>
<modeling>
 <generator>
  <i name="program" type="string">vasp </i>
  <i name="version" type="string">5.3.5  </i>
  <i name="subversion" type="string">31Mar14 (build Mar 18 2017 11:34:20) complex                          parallel </i>
  <i name="platform" type="string">LinuxIFC </i>
  <i name="date" type="string">2018 02 12 </i>
  <i name="time" type="string">10:24:55 </i>
 </generator>
 <incar>
  <i type="string" name="SYSTEM"> MoTe2</i>
  <i type="string" name="PREC">accurate</i>
  <i type="string" name="ALGO"> Normal</i>
  <i type="logical" name="ADDGRID"> T  </i>
  <i type="int" name="IBRION">     2</i>
  <i name="EDIFF">      0.00001000</i>
  <i type="int" name="NSW">  1000</i>
  <i type="int" name="ISIF">     2</i>
  <i type="int" name="ISYM">     0</i>
  <i name="ENCUT">    400.00000000</i>
  <i name="POTIM">      0.50000000</i>
  <i type="logical" name="LREAL"> F  </i>
  <i type="int" name="ISMEAR">     0</i>
  <i name="SIGMA">      0.05000000</i>
  <i type="int" name="NWRITE">     1</i>
  <i type="logical" name="LWAVE"> F  </i>
  <i type="logical" name="LCHARG"> F  </i>
 </incar>
 <kpoints>
  <generation param="Monkhorst-Pack">
   <v type="int" name="divisions">       4        4        1 </v>
   <v name="usershift">      0.00000000       0.00000000       0.00000000 </v>
   <v name="genvec1">      0.25000000       0.00000000       0.00000000 </v>
   <v name="genvec2">      0.00000000       0.25000000       0.00000000 </v>
   <v name="genvec3">      0.00000000       0.00000000       1.00000000 </v>
   <v name="shift">      0.50000000       0.50000000       0.00000000 </v>
  </generation>
  <varray name="kpointlist" >
   <v>       0.12500000       0.12500000       0.00000000 </v>
   <v>       0.37500000       0.12500000       0.00000000 </v>
   <v>      -0.37500000       0.12500000       0.00000000 </v>
   <v>      -0.12500000       0.12500000       0.00000000 </v>
   <v>       0.12500000       0.37500000       0.00000000 </v>
   <v>       0.37500000       0.37500000       0.00000000 </v>
   <v>      -0.37500000       0.37500000       0.00000000 </v>
   <v>      -0.12500000       0.37500000       0.00000000 </v>
  </varray>
  <varray name="weights" >
   <v>       0.12500000 </v>
   <v>       0.12500000 </v>
   <v>       0.12500000 </v>
   <v>       0.12500000 </v>
   <v>       0.12500000 </v>
   <v>       0.12500000 </v>
   <v>       0.12500000 </v>
   <v>       0.12500000 </v>
  </varray>
 </kpoints>
 <parameters>
  <separator name="general" >
   <i type="string" name="SYSTEM">MoTe2</i>
   <i type="logical" name="LCOMPAT"> F  </i>
  </separator>
  <separator name="electronic" >
   <i type="string" name="PREC">accura</i>
   <i name="ENMAX">    400.00000000</i>
   <i name="ENAUG">    368.79200000</i>
   <i name="EDIFF">      0.00001000</i>
   <i type="int" name="IALGO">    38</i>
   <i type="int" name="IWAVPR">    11</i>
   <i type="int" name="NBANDS">   176</i>
   <i name="NELECT">    270.00000000</i>
   <i type="int" name="TURBO">     0</i>
   <i type="int" name="IRESTART">     0</i>
   <i type="int" name="NREBOOT">     0</i>
   <i type="int" name="NMIN">     0</i>
   <i name="EREF">      0.00000000</i>
   <separator name="electronic smearing" >
    <i type="int" name="ISMEAR">     0</i>
    <i name="SIGMA">      0.05000000</i>
    <i name="KSPACING">      0.50000000</i>
    <i type="logical" name="KGAMMA"> T  </i>
   </separator>
   <separator name="electronic projectors" >
    <i type="logical" name="LREAL"> F  </i>
    <v name="ROPT">      0.00000000      0.00000000</v>
    <i type="int" name="LMAXPAW">  -100</i>
    <i type="int" name="LMAXMIX">     2</i>
    <i type="logical" name="NLSPLINE"> F  </i>
   </separator>
   <separator name="electronic startup" >
    <i type="int" name="ISTART">     0</i>
    <i type="int" name="ICHARG">     2</i>
    <i type="int" name="INIWAV">     1</i>
   </separator>
   <separator name="electronic spin" >
    <i type="int" name="ISPIN">     1</i>
    <i type="logical" name="LNONCOLLINEAR"> F  </i>
    <v name="MAGMOM">      1.00000000      1.00000000      1.00000000      1.00000000      1.00000000      1.00000000      1.00000000      1.00000000      1.00000000      1.00000000      1.00000000      1.00000000      1.00000000      1.00000000      1.00000000      1.00000000      1.00000000      1.00000000      1.00000000      1.00000000
      1.00000000      1.00000000      1.00000000      1.00000000      1.00000000      1.00000000      1.00000000      1.00000000      1.00000000      1.00000000      1.00000000      1.00000000      1.00000000      1.00000000      1.00000000      1.00000000      1.00000000      1.00000000      1.00000000      1.00000000
      1.00000000      1.00000000      1.00000000      1.00000000      1.00000000</v>
    <i name="NUPDOWN">     -1.00000000</i>
    <i type="logical" name="LSORBIT"> F  </i>
    <v name="SAXIS">      0.00000000      0.00000000      1.00000000</v>
    <i type="logical" name="LSPIRAL"> F  </i>
    <v name="QSPIRAL">      0.00000000      0.00000000      0.00000000</v>
    <i type="logical" name="LZEROZ"> F  </i>
   </separator>
   <separator name="electronic exchange-correlation" >
    <i type="logical" name="LASPH"> F  </i>
    <i type="logical" name="LMETAGGA"> F  </i>
   </separator>
   <separator name="electronic convergence" >
    <i type="int" name="NELM">    60</i>
    <i type="int" name="NELMDL">     0</i>
    <i type="int" name="NELMIN">     2</i>
    <i name="ENINI">    400.00000000</i>
    <separator name="electronic convergence detail" >
     <i type="logical" name="LDIAG"> T  </i>
     <i type="logical" name="LSUBROT"> F  </i>
     <i name="WEIMIN">      0.00100000</i>
     <i name="EBREAK">      0.00000001</i>
     <i name="DEPER">      0.30000000</i>
     <i type="int" name="NRMM">     4</i>
     <i name="TIME">      0.40000000</i>
    </separator>
   </separator>
   <separator name="electronic mixer" >
    <i name="AMIX">      0.40000000</i>
    <i name="BMIX">      1.00000000</i>
    <i name="AMIN">      0.10000000</i>
    <i name="AMIX_MAG">      1.60000000</i>
    <i name="BMIX_MAG">      1.00000000</i>
    <separator name="electronic mixer details" >
     <i type="int" name="IMIX">     4</i>
     <i type="int" name="MAXMIX">   -45</i>
     <i name="WC">    100.00000000</i>
     <i type="int" name="INIMIX">     1</i>
     <i type="int" name="MIXPRE">     1</i>
     <i type="int" name="MREMOVE">     5</i>
    </separator>
   </separator>
   <separator name="electronic dipolcorrection" >
    <i type="logical" name="LDIPOL"> F  </i>
    <i type="logical" name="LMONO"> F  </i>
    <i type="int" name="IDIPOL">     0</i>
    <i name="EPSILON">      1.00000000</i>
    <v name="DIPOL">   -100.00000000   -100.00000000   -100.00000000</v>
    <i name="EFIELD">      0.00000000</i>
   </separator>
  </separator>
  <separator name="grids" >
   <i type="int" name="NGX">    90</i>
   <i type="int" name="NGY">    84</i>
   <i type="int" name="NGZ">   108</i>
   <i type="int" name="NGXF">   180</i>
   <i type="int" name="NGYF">   168</i>
   <i type="int" name="NGZF">   216</i>
   <i type="logical" name="ADDGRID"> T  </i>
  </separator>
  <separator name="ionic" >
   <i type="int" name="NSW">  1000</i>
   <i type="int" name="IBRION">     2</i>
   <i type="int" name="ISIF">     2</i>
   <i name="PSTRESS">      0.00000000</i>
   <i name="EDIFFG">      0.00010000</i>
   <i type="int" name="NFREE">     1</i>
   <i name="POTIM">      0.50000000</i>
   <i name="SMASS">     -3.00000000</i>
   <i name="SCALEE">      1.00000000</i>
  </separator>
  <separator name="ionic md" >
   <i name="TEBEG">      0.00010000</i>
   <i name="TEEND">      0.00010000</i>
   <i type="int" name="NBLOCK">     1</i>
   <i type="int" name="KBLOCK">  1000</i>
   <i type="int" name="NPACO">   256</i>
   <i name="APACO">     16.00000000</i>
  </separator>
  <separator name="symmetry" >
   <i type="int" name="ISYM">     0</i>
   <i name="SYMPREC">      0.00001000</i>
  </separator>
  <separator name="dos" >
   <i type="logical" name="LORBIT"> F  </i>
   <v name="RWIGS">     -1.00000000     -1.00000000</v>
   <i type="int" name="NEDOS">   301</i>
   <i name="EMIN">     10.00000000</i>
   <i name="EMAX">    -10.00000000</i>
   <i name="EFERMI">      0.00000000</i>
  </separator>
  <separator name="writing" >
   <i type="int" name="NWRITE">     1</i>
   <i type="logical" name="LWAVE"> F  </i>
   <i type="logical" name="LCHARG"> F  </i>
   <i type="logical" name="LPARD"> F  </i>
   <i type="logical" name="LVTOT"> F  </i>
   <i type="logical" name="LVHAR"> F  </i>
   <i type="logical" name="LELF"> F  </i>
   <i type="logical" name="LOPTICS"> F  </i>
   <v name="STM">      0.00000000      0.00000000      0.00000000      0.00000000      0.00000000      0.00000000      0.00000000</v>
  </separator>
  <separator name="performance" >
   <i type="int" name="NPAR">    16</i>
   <i type="int" name="NSIM">     4</i>
   <i type="int" name="NBLK">    -1</i>
   <i type="logical" name="LPLANE"> T  </i>
   <i type="logical" name="LSCALAPACK"> T  </i>
   <i type="logical" name="LSCAAWARE"> F  </i>
   <i type="logical" name="LSCALU"> F  </i>
   <i type="logical" name="LASYNC"> F  </i>
   <i type="logical" name="LORBITALREAL"> F  </i>
  </separator>
  <separator name="miscellaneous" >
   <i type="int" name="IDIOT">     3</i>
   <i type="logical" name="LMUSIC"> F  </i>
   <v name="POMASS">    127.60000000     95.94000000</v>
   <v name="DARWINR">      0.00000000      0.00000000</v>
   <v name="DARWINV">      1.00000000      1.00000000</v>
   <i type="logical" name="LCORR"> T  </i>
  </separator>
  <i type="logical" name="GGA_COMPAT"> T  </i>
  <i type="logical" name="LBERRY"> F  </i>
  <i type="int" name="ICORELEVEL">     0</i>
  <i type="logical" name="LDAU"> F  </i>
  <i type="int" name="I_CONSTRAINED_M">     0</i>
  <separator name="electronic exchange-correlation" >
   <i type="string" name="GGA">--</i>
   <i type="int" name="VOSKOWN">     0</i>
   <i type="logical" name="LHFCALC"> F  </i>
   <i type="string" name="PRECFOCK"></i>
   <i type="logical" name="LSYMGRAD"> F  </i>
   <i type="logical" name="LHFONE"> F  </i>
   <i type="logical" name="LRHFCALC"> F  </i>
   <i type="logical" name="LTHOMAS"> F  </i>
   <i type="logical" name="LMODELHF"> F  </i>
   <i name="ENCUT4O">     -1.00000000</i>
   <i type="int" name="EXXOEP">     0</i>
   <i type="int" name="FOURORBIT">     0</i>
   <i name="AEXX">      0.00000000</i>
   <i name="HFALPHA">      0.00000000</i>
   <i name="MCALPHA">      0.00000000</i>
   <i name="ALDAX">      1.00000000</i>
   <i name="AGGAX">      1.00000000</i>
   <i name="ALDAC">      1.00000000</i>
   <i name="AGGAC">      1.00000000</i>
   <i type="int" name="NKREDX">     1</i>
   <i type="int" name="NKREDY">     1</i>
   <i type="int" name="NKREDZ">     1</i>
   <i type="logical" name="SHIFTRED"> F  </i>
   <i type="logical" name="ODDONLY"> F  </i>
   <i type="logical" name="EVENONLY"> F  </i>
   <i type="int" name="LMAXFOCK">     0</i>
   <i type="int" name="NMAXFOCKAE">     0</i>
   <i type="logical" name="LFOCKAEDFT"> F  </i>
   <i name="HFSCREEN">      0.00000000</i>
   <i name="HFSCREENC">      0.00000000</i>
   <i type="int" name="NBANDSGWLOW">     0</i>
  </separator>
  <separator name="vdW DFT" >
   <i type="logical" name="LUSE_VDW"> F  </i>
   <i name="Zab_VDW">     -0.84910000</i>
   <i name="PARAM1">      0.12340000</i>
   <i name="PARAM2">      1.00000000</i>
   <i name="PARAM3">      0.00000000</i>
  </separator>
  <separator name="model GW" >
   <i type="int" name="MODEL_GW">     0</i>
   <i name="MODEL_EPS0">     37.51651923</i>
   <i name="MODEL_ALPHA">      1.00000000</i>
  </separator>
  <separator name="linear response parameters" >
   <i type="logical" name="LEPSILON"> F  </i>
   <i type="logical" name="LRPA"> F  </i>
   <i type="logical" name="LNABLA"> F  </i>
   <i type="logical" name="LVEL"> F  </i>
   <i type="int" name="KINTER">     0</i>
   <i name="CSHIFT">      0.10000000</i>
   <i name="OMEGAMAX">     -1.00000000</i>
   <i name="DEG_THRESHOLD">      0.00200000</i>
  </separator>
  <separator name="orbital magnetization" >
   <i type="logical" name="NUCIND"> F  </i>
   <v name="MAGPOS">      0.00000000      0.00000000      0.00000000</v>
   <i type="logical" name="LNICSALL"> T  </i>
   <i type="logical" name="ORBITALMAG"> F  </i>
   <i type="logical" name="LMAGBLOCH"> F  </i>
   <i type="logical" name="LCHIMAG"> F  </i>
   <i type="logical" name="LGAUGE"> T  </i>
   <i type="int" name="MAGATOM">     0</i>
   <v name="MAGDIPOL">      0.00000000      0.00000000      0.00000000</v>
   <v name="AVECCONST">      0.00000000      0.00000000      0.00000000</v>
  </separator>
  <separator name="response functions" >
   <i type="logical" name="LADDER"> F  </i>
   <i type="logical" name="LFXC"> F  </i>
   <i type="logical" name="LHARTREE"> T  </i>
   <i type="int" name="IBSE">     0</i>
   <i type="logical" name="LTCTE"> F  </i>
   <i type="logical" name="LTETE"> F  </i>
   <i type="logical" name="LTRIPLET"> F  </i>
   <i type="logical" name="LFXCEPS"> F  </i>
   <i type="logical" name="LFXHEG"> F  </i>
   <i type="logical" name="L2ORDER"> F  </i>
   <i type="logical" name="LUSEW"> F  </i>
   <i name="ENCUTGW">     -2.00000000</i>
   <i name="ENCUTGWSOFT">     -2.00000000</i>
   <i name="ENCUTLF">     -1.00000000</i>
   <i type="int" name="LMAXMP2">    -1</i>
   <i name="SCISSOR">      0.00000000</i>
   <i type="int" name="NOMEGA">     0</i>
   <i type="int" name="NOMEGAR">     0</i>
   <i type="int" name="NBANDSGW">    -1</i>
   <i type="int" name="NBANDSO">    -1</i>
   <i type="int" name="NBANDSV">    -1</i>
   <i type="int" name="NELM">     1</i>
   <i type="int" name="DIM">     3</i>
   <i type="int" name="ANTIRES">     0</i>
   <i name="OMEGAMAX">    -30.00000000</i>
   <i name="OMEGAMIN">    -30.00000000</i>
   <i name="OMEGATL">   -200.00000000</i>
   <i type="int" name="OMEGAGRID">     0</i>
   <i name="CSHIFT">     -0.10000000</i>
   <i type="logical" name="SELFENERGY"> F  </i>
   <i type="logical" name="LSPECTRAL"> F  </i>
   <i type="logical" name="ODDONLYGW"> F  </i>
   <i type="logical" name="EVENONLYGW"> F  </i>
   <i type="int" name="NKREDLFX">     1</i>
   <i type="int" name="NKREDLFY">     1</i>
   <i type="int" name="NKREDLFZ">     1</i>
   <i type="int" name="MAXMEM">  1800</i>
   <i type="int" name="TELESCOPE">     0</i>
   <i type="int" name="TAUPAR">     1</i>
  </separator>
  <separator name="External order field" >
   <i name="OFIELD_KAPPA">      0.00000000</i>
   <v name="OFIELD_K">      0.00000000      0.00000000      0.00000000</v>
   <i name="OFIELD_Q6_NEAR">      0.00000000</i>
   <i name="OFIELD_Q6_FAR">      0.00000000</i>
   <i name="OFIELD_A">      0.00000000</i>
  </separator>
 </parameters>
 <atominfo>
  <atoms>      45 </atoms>
  <types>       2 </types>
  <array name="atoms" >
   <dimension dim="1">ion</dimension>
   <field type="string">element</field>
   <field type="int">atomtype</field>
   <set>
    <rc><c>Te</c><c>   1</c></rc>
    <rc><c>Te</c><c>   1</c></rc>
    <rc><c>Te</c><c>   1</c></rc>
    <rc><c>Te</c><c>   1</c></rc>
    <rc><c>Te</c><c>   1</c></rc>
    <rc><c>Te</c><c>   1</c></rc>
    <rc><c>Te</c><c>   1</c></rc>
    <rc><c>Te</c><c>   1</c></rc>
    <rc><c>Te</c><c>   1</c></rc>
    <rc><c>Te</c><c>   1</c></rc>
    <rc><c>Te</c><c>   1</c></rc>
    <rc><c>Te</c><c>   1</c></rc>
    <rc><c>Te</c><c>   1</c></rc>
    <rc><c>Te</c><c>   1</c></rc>
    <rc><c>Te</c><c>   1</c></rc>
    <rc><c>Te</c><c>   1</c></rc>
    <rc><c>Te</c><c>   1</c></rc>
    <rc><c>Te</c><c>   1</c></rc>
    <rc><c>Te</c><c>   1</c></rc>
    <rc><c>Te</c><c>   1</c></rc>
    <rc><c>Te</c><c>   1</c></rc>
    <rc><c>Te</c><c>   1</c></rc>
    <rc><c>Te</c><c>   1</c></rc>
    <rc><c>Te</c><c>   1</c></rc>
    <rc><c>Te</c><c>   1</c></rc>
    <rc><c>Te</c><c>   1</c></rc>
    <rc><c>Te</c><c>   1</c></rc>
    <rc><c>Te</c><c>   1</c></rc>
    <rc><c>Te</c><c>   1</c></rc>
    <rc><c>Mo</c><c>   2</c></rc>
    <rc><c>Mo</c><c>   2</c></rc>
    <rc><c>Mo</c><c>   2</c></rc>
    <rc><c>Mo</c><c>   2</c></rc>
    <rc><c>Mo</c><c>   2</c></rc>
    <rc><c>Mo</c><c>   2</c></rc>
    <rc><c>Mo</c><c>   2</c></rc>
    <rc><c>Mo</c><c>   2</c></rc>
    <rc><c>Mo</c><c>   2</c></rc>
    <rc><c>Mo</c><c>   2</c></rc>
    <rc><c>Mo</c><c>   2</c></rc>
    <rc><c>Mo</c><c>   2</c></rc>
    <rc><c>Mo</c><c>   2</c></rc>
    <rc><c>Mo</c><c>   2</c></rc>
    <rc><c>Mo</c><c>   2</c></rc>
    <rc><c>Mo</c><c>   2</c></rc>
   </set>
  </array>
  <array name="atomtypes" >
   <dimension dim="1">type</dimension>
   <field type="int">atomspertype</field>
   <field type="string">element</field>
   <field>mass</field>
   <field>valence</field>
   <field type="string">pseudopotential</field>
   <set>
    <rc><c>  29</c><c>Te</c><c>    127.60000000</c><c>      6.00000000</c><c>  PAW_PBE Te 08Apr2002                  </c></rc>
    <rc><c>  16</c><c>Mo</c><c>     95.94000000</c><c>      6.00000000</c><c>  PAW_PBE Mo 08Apr2002                  </c></rc>
   </set>
  </array>
 </atominfo>
 <structure name="initialpos" >
  <crystal>
   <varray name="basis" >
    <v>      13.80799961       0.00000000       0.00000000 </v>
    <v>       0.00000000      12.73600006       0.00000000 </v>
    <v>       0.00000000       0.00000000      16.00000000 </v>
   </varray>
   <i name="volume">   2813.73894219 </i>
   <varray name="rec_basis" >
    <v>       0.07242179       0.00000000       0.00000000 </v>
    <v>       0.00000000       0.07851759       0.00000000 </v>
    <v>       0.00000000       0.00000000       0.06250000 </v>
   </varray>
  </crystal>
  <varray name="positions" >
   <v>       0.62500000       0.05081658       0.62913311 </v>
   <v>       0.37500000       0.05081658       0.62913311 </v>
   <v>       0.87500000       0.05081658       0.62913311 </v>
   <v>       0.12500000       0.55081660       0.62913311 </v>
   <v>       0.62500000       0.55081660       0.62913311 </v>
   <v>       0.37500000       0.55081660       0.62913311 </v>
   <v>       0.87500000       0.55081660       0.62913311 </v>
   <v>       0.12500000       0.37457836       0.40758437 </v>
   <v>       0.62500000       0.37457836       0.40758437 </v>
   <v>       0.37500000       0.37457836       0.40758437 </v>
   <v>       0.87500000       0.37457836       0.40758437 </v>
   <v>       0.12500000       0.87457836       0.40758437 </v>
   <v>       0.37500000       0.87457836       0.40758437 </v>
   <v>       0.87500000       0.87457836       0.40758437 </v>
   <v>       0.00000000       0.12870525       0.37086561 </v>
   <v>       0.50000000       0.12870525       0.37086561 </v>
   <v>       0.25000000       0.12870525       0.37086561 </v>
   <v>       0.75000000       0.12870525       0.37086561 </v>
   <v>       0.00000000       0.62870526       0.37086561 </v>
   <v>       0.50000000       0.62870526       0.37086561 </v>
   <v>       0.75000000       0.62870526       0.37086561 </v>
   <v>       0.00000000       0.30494031       0.59241623 </v>
   <v>       0.50000000       0.30494031       0.59241623 </v>
   <v>       0.25000000       0.30494031       0.59241623 </v>
   <v>       0.75000000       0.30494031       0.59241623 </v>
   <v>       0.00000000       0.80494034       0.59241623 </v>
   <v>       0.50000000       0.80494034       0.59241623 </v>
   <v>       0.25000000       0.80494034       0.59241623 </v>
   <v>       0.75000000       0.80494034       0.59241623 </v>
   <v>       0.12500000       0.18029837       0.49406749 </v>
   <v>       0.62500000       0.18029837       0.49406749 </v>
   <v>       0.37500000       0.18029837       0.49406749 </v>
   <v>       0.87500000       0.18029837       0.49406749 </v>
   <v>       0.12500000       0.68029839       0.49406749 </v>
   <v>       0.62500000       0.68029839       0.49406749 </v>
   <v>       0.37500000       0.68029839       0.49406749 </v>
   <v>       0.87500000       0.68029839       0.49406749 </v>
   <v>       0.00000000       0.99921954       0.50593311 </v>
   <v>       0.50000000       0.99921954       0.50593311 </v>
   <v>       0.25000000       0.99921954       0.50593311 </v>
   <v>       0.75000000       0.99921954       0.50593311 </v>
   <v>       0.00000000       0.49921954       0.50593311 </v>
   <v>       0.50000000       0.49921954       0.50593311 </v>
   <v>       0.25000000       0.49921954       0.50593311 </v>
   <v>       0.75000000       0.49921954       0.50593311 </v>
  </varray>
 </structure>
 <calculation>
  <scstep>
   <time name="dav">    5.83    5.83</time>
   <time name="total">    6.18    6.20</time>
   <energy>
    <i name="alphaZ">    187.69165091 </i>
    <i name="ewald">  12199.85351087 </i>
    <i name="hartreedc"> -21731.14857438 </i>
    <i name="XCdc">  -1790.34794834 </i>
    <i name="pawpsdc">  10273.91005553 </i>
    <i name="pawaedc">  -8019.19805879 </i>
    <i name="eentropy">     -0.03009685 </i>
    <i name="bandstr">    447.58409660 </i>
    <i name="atom">   9955.10090737 </i>
    <i name="e_fr_energy">   1523.41554294 </i>
    <i name="e_wo_entrp">   1523.44563979 </i>
    <i name="e_0_energy">   1523.43059136 </i>
   </energy>
  </scstep>
  <scstep>
   <time name="dav">    7.46    7.46</time>
   <time name="total">    7.46    7.46</time>
   <energy>
    <i name="e_fr_energy">    -78.01271176 </i>
    <i name="e_wo_entrp">    -77.98903108 </i>
    <i name="e_0_energy">    -78.00087142 </i>
   </energy>
  </scstep>
  <scstep>
   <time name="dav">    6.50    6.52</time>
   <time name="total">    6.51    6.52</time>
   <energy>
    <i name="e_fr_energy">   -271.52879667 </i>
    <i name="e_wo_entrp">   -271.49888238 </i>
    <i name="e_0_energy">   -271.51383952 </i>
   </energy>
  </scstep>
  <scstep>
   <time name="dav">    8.04    8.04</time>
   <time name="total">    8.04    8.04</time>
   <energy>
    <i name="e_fr_energy">   -282.09566936 </i>
    <i name="e_wo_entrp">   -282.06463222 </i>
    <i name="e_0_energy">   -282.08015079 </i>
   </energy>
  </scstep>
  <scstep>
   <time name="dav">    7.98    7.98</time>
   <time name="total">    8.39    8.39</time>
   <energy>
    <i name="e_fr_energy">   -282.41634081 </i>
    <i name="e_wo_entrp">   -282.38531814 </i>
    <i name="e_0_energy">   -282.40082947 </i>
   </energy>
  </scstep>
  <scstep>
   <time name="dav">    7.28    7.28</time>
   <time name="total">    8.03    8.07</time>
   <energy>
    <i name="e_fr_energy">   -275.43554314 </i>
    <i name="e_wo_entrp">   -275.38365579 </i>
    <i name="e_0_energy">   -275.40959946 </i>
   </energy>
  </scstep>
  <scstep>
   <time name="dav">    7.59    7.59</time>
   <time name="total">    8.31    8.31</time>
   <energy>
    <i name="e_fr_energy">   -278.07247984 </i>
    <i name="e_wo_entrp">   -278.04535589 </i>
    <i name="e_0_energy">   -278.05891787 </i>
   </energy>
  </scstep>
  <scstep>
   <time name="dav">    7.58    7.58</time>
   <time name="total">    8.29    8.29</time>
   <energy>
    <i name="e_fr_energy">   -271.74335377 </i>
    <i name="e_wo_entrp">   -271.70591824 </i>
    <i name="e_0_energy">   -271.72463601 </i>
   </energy>
  </scstep>
  <scstep>
   <time name="dav">    7.32    7.32</time>
   <time name="total">    8.03    8.03</time>
   <energy>
    <i name="e_fr_energy">   -270.92229894 </i>
    <i name="e_wo_entrp">   -270.89055518 </i>
    <i name="e_0_energy">   -270.90642706 </i>
   </energy>
  </scstep>
  <scstep>
   <time name="dav">    7.26    7.28</time>
   <time name="total">    7.97    7.99</time>
   <energy>
    <i name="e_fr_energy">   -270.80021460 </i>
    <i name="e_wo_entrp">   -270.76226438 </i>
    <i name="e_0_energy">   -270.78123949 </i>
   </energy>
  </scstep>
  <scstep>
   <time name="dav">    7.71    7.71</time>
   <time name="total">    8.43    8.43</time>
   <energy>
    <i name="e_fr_energy">   -270.77669419 </i>
    <i name="e_wo_entrp">   -270.74047730 </i>
    <i name="e_0_energy">   -270.75858575 </i>
   </energy>
  </scstep>
  <scstep>
   <time name="dav">    7.29    7.29</time>
   <time name="total">    8.00    8.00</time>
   <energy>
    <i name="e_fr_energy">   -270.75945595 </i>
    <i name="e_wo_entrp">   -270.72319194 </i>
    <i name="e_0_energy">   -270.74132394 </i>
   </energy>
  </scstep>
  <scstep>
   <time name="dav">    7.66    7.66</time>
   <time name="total">    8.38    8.38</time>
   <energy>
    <i name="e_fr_energy">   -270.73175060 </i>
    <i name="e_wo_entrp">   -270.69310764 </i>
    <i name="e_0_energy">   -270.71242912 </i>
   </energy>
  </scstep>
  <scstep>
   <time name="dav">    7.51    7.53</time>
   <time name="total">    8.23    8.25</time>
   <energy>
    <i name="e_fr_energy">   -270.71978574 </i>
    <i name="e_wo_entrp">   -270.68256945 </i>
    <i name="e_0_energy">   -270.70117759 </i>
   </energy>
  </scstep>
  <scstep>
   <time name="dav">    7.96    7.96</time>
   <time name="total">    8.67    8.67</time>
   <energy>
    <i name="e_fr_energy">   -270.71443044 </i>
    <i name="e_wo_entrp">   -270.67635798 </i>
    <i name="e_0_energy">   -270.69539421 </i>
   </energy>
  </scstep>
  <scstep>
   <time name="dav">    7.26    7.26</time>
   <time name="total">    7.97    7.97</time>
   <energy>
    <i name="e_fr_energy">   -270.71211547 </i>
    <i name="e_wo_entrp">   -270.67394658 </i>
    <i name="e_0_energy">   -270.69303103 </i>
   </energy>
  </scstep>
  <scstep>
   <time name="dav">    7.37    7.37</time>
   <time name="total">    8.09    8.09</time>
   <energy>
    <i name="e_fr_energy">   -270.71075620 </i>
    <i name="e_wo_entrp">   -270.67283265 </i>
    <i name="e_0_energy">   -270.69179442 </i>
   </energy>
  </scstep>
  <scstep>
   <time name="dav">    7.18    7.20</time>
   <time name="total">    7.89    7.91</time>
   <energy>
    <i name="e_fr_energy">   -270.70886067 </i>
    <i name="e_wo_entrp">   -270.67063435 </i>
    <i name="e_0_energy">   -270.68974751 </i>
   </energy>
  </scstep>
  <scstep>
   <time name="dav">    7.39    7.39</time>
   <time name="total">    8.11    8.11</time>
   <energy>
    <i name="e_fr_energy">   -270.70769943 </i>
    <i name="e_wo_entrp">   -270.66978902 </i>
    <i name="e_0_energy">   -270.68874423 </i>
   </energy>
  </scstep>
  <scstep>
   <time name="dav">    6.88    6.89</time>
   <time name="total">    7.60    7.61</time>
   <energy>
    <i name="e_fr_energy">   -270.70774348 </i>
    <i name="e_wo_entrp">   -270.66968351 </i>
    <i name="e_0_energy">   -270.68871349 </i>
   </energy>
  </scstep>
  <scstep>
   <time name="dav">    7.38    7.38</time>
   <time name="total">    8.10    8.10</time>
   <energy>
    <i name="e_fr_energy">   -270.70814890 </i>
    <i name="e_wo_entrp">   -270.67012973 </i>
    <i name="e_0_energy">   -270.68913932 </i>
   </energy>
  </scstep>
  <scstep>
   <time name="dav">    7.05    7.07</time>
   <time name="total">    7.81    7.83</time>
   <energy>
    <i name="e_fr_energy">   -270.70932454 </i>
    <i name="e_wo_entrp">   -270.67132292 </i>
    <i name="e_0_energy">   -270.69032373 </i>
   </energy>
  </scstep>
  <scstep>
   <time name="dav">    6.86    6.86</time>
   <time name="total">    7.58    7.58</time>
   <energy>
    <i name="e_fr_energy">   -270.71015994 </i>
    <i name="e_wo_entrp">   -270.67216350 </i>
    <i name="e_0_energy">   -270.69116172 </i>
   </energy>
  </scstep>
  <scstep>
   <time name="dav">    6.14    6.14</time>
   <time name="total">    6.86    6.86</time>
   <energy>
    <i name="e_fr_energy">   -270.71069916 </i>
    <i name="e_wo_entrp">   -270.67270319 </i>
    <i name="e_0_energy">   -270.69170117 </i>
   </energy>
  </scstep>
  <scstep>
   <time name="dav">    5.36    5.36</time>
   <time name="total">    6.07    6.07</time>
   <energy>
    <i name="e_fr_energy">   -270.71123800 </i>
    <i name="e_wo_entrp">   -270.67323875 </i>
    <i name="e_0_energy">   -270.69223838 </i>
   </energy>
  </scstep>
  <scstep>
   <time name="dav">    5.11    5.13</time>
   <time name="total">    5.83    5.84</time>
   <energy>
    <i name="e_fr_energy">   -270.71181900 </i>
    <i name="e_wo_entrp">   -270.67382282 </i>
    <i name="e_0_energy">   -270.69282091 </i>
   </energy>
  </scstep>
  <scstep>
   <time name="dav">    5.08    5.07</time>
   <time name="total">    5.79    5.79</time>
   <energy>
    <i name="e_fr_energy">   -270.71220123 </i>
    <i name="e_wo_entrp">   -270.67420799 </i>
    <i name="e_0_energy">   -270.69320461 </i>
   </energy>
  </scstep>
  <scstep>
   <time name="dav">    4.56    4.56</time>
   <time name="total">    5.30    5.30</time>
   <energy>
    <i name="e_fr_energy">   -270.71229533 </i>
    <i name="e_wo_entrp">   -270.67429961 </i>
    <i name="e_0_energy">   -270.69329747 </i>
   </energy>
  </scstep>
  <scstep>
   <time name="dav">    4.44    4.44</time>
   <time name="total">    5.16    5.16</time>
   <energy>
    <i name="e_fr_energy">   -270.71237558 </i>
    <i name="e_wo_entrp">   -270.67438057 </i>
    <i name="e_0_energy">   -270.69337807 </i>
   </energy>
  </scstep>
  <scstep>
   <time name="dav">    4.36    4.36</time>
   <time name="total">    5.08    5.08</time>
   <energy>
    <i name="e_fr_energy">   -270.71240825 </i>
    <i name="e_wo_entrp">   -270.67441106 </i>
    <i name="e_0_energy">   -270.69340966 </i>
   </energy>
  </scstep>
  <scstep>
   <time name="dav">    4.53    4.53</time>
   <time name="total">    5.25    5.25</time>
   <energy>
    <i name="e_fr_energy">   -270.71243285 </i>
    <i name="e_wo_entrp">   -270.67443578 </i>
    <i name="e_0_energy">   -270.69343431 </i>
   </energy>
  </scstep>
  <scstep>
   <time name="dav">    4.40    4.42</time>
   <time name="total">    4.70    4.73</time>
   <energy>
    <i name="alphaZ">    187.69165091 </i>
    <i name="ewald">  12199.85351087 </i>
    <i name="hartreedc"> -21872.93120701 </i>
    <i name="XCdc">  -1778.87149818 </i>
    <i name="pawpsdc">  19669.52156742 </i>
    <i name="pawaedc"> -17434.97490857 </i>
    <i name="eentropy">     -0.03799723 </i>
    <i name="bandstr">  -1196.06446295 </i>
    <i name="atom">   9955.10090737 </i>
    <i name="e_fr_energy">   -270.71243737 </i>
    <i name="e_wo_entrp">   -270.67444014 </i>
    <i name="e_0_energy">   -270.69343876 </i>
   </energy>
  </scstep>
  <structure>
   <crystal>
    <varray name="basis" >
     <v>      13.80799961       0.00000000       0.00000000 </v>
     <v>       0.00000000      12.73600006       0.00000000 </v>
     <v>       0.00000000       0.00000000      16.00000000 </v>
    </varray>
    <i name="volume">   2813.73894219 </i>
    <varray name="rec_basis" >
     <v>       0.07242179       0.00000000       0.00000000 </v>
     <v>       0.00000000       0.07851759       0.00000000 </v>
     <v>       0.00000000       0.00000000       0.06250000 </v>
    </varray>
   </crystal>
   <varray name="positions" >
    <v>       0.62500000       0.05081658       0.62913311 </v>
    <v>       0.37500000       0.05081658       0.62913311 </v>
    <v>       0.87500000       0.05081658       0.62913311 </v>
    <v>       0.12500000       0.55081660       0.62913311 </v>
    <v>       0.62500000       0.55081660       0.62913311 </v>
    <v>       0.37500000       0.55081660       0.62913311 </v>
    <v>       0.87500000       0.55081660       0.62913311 </v>
    <v>       0.12500000       0.37457836       0.40758437 </v>
    <v>       0.62500000       0.37457836       0.40758437 </v>
    <v>       0.37500000       0.37457836       0.40758437 </v>
    <v>       0.87500000       0.37457836       0.40758437 </v>
    <v>       0.12500000       0.87457836       0.40758437 </v>
    <v>       0.37500000       0.87457836       0.40758437 </v>
    <v>       0.87500000       0.87457836       0.40758437 </v>
    <v>       0.00000000       0.12870525       0.37086561 </v>
    <v>       0.50000000       0.12870525       0.37086561 </v>
    <v>       0.25000000       0.12870525       0.37086561 </v>
    <v>       0.75000000       0.12870525       0.37086561 </v>
    <v>       0.00000000       0.62870526       0.37086561 </v>
    <v>       0.50000000       0.62870526       0.37086561 </v>
    <v>       0.75000000       0.62870526       0.37086561 </v>
    <v>       0.00000000       0.30494031       0.59241623 </v>
    <v>       0.50000000       0.30494031       0.59241623 </v>
    <v>       0.25000000       0.30494031       0.59241623 </v>
    <v>       0.75000000       0.30494031       0.59241623 </v>
    <v>       0.00000000       0.80494034       0.59241623 </v>
    <v>       0.50000000       0.80494034       0.59241623 </v>
    <v>       0.25000000       0.80494034       0.59241623 </v>
    <v>       0.75000000       0.80494034       0.59241623 </v>
    <v>       0.12500000       0.18029837       0.49406749 </v>
    <v>       0.62500000       0.18029837       0.49406749 </v>
    <v>       0.37500000       0.18029837       0.49406749 </v>
    <v>       0.87500000       0.18029837       0.49406749 </v>
    <v>       0.12500000       0.68029839       0.49406749 </v>
    <v>       0.62500000       0.68029839       0.49406749 </v>
    <v>       0.37500000       0.68029839       0.49406749 </v>
    <v>       0.87500000       0.68029839       0.49406749 </v>
    <v>       0.00000000       0.99921954       0.50593311 </v>
    <v>       0.50000000       0.99921954       0.50593311 </v>
    <v>       0.25000000       0.99921954       0.50593311 </v>
    <v>       0.75000000       0.99921954       0.50593311 </v>
    <v>       0.00000000       0.49921954       0.50593311 </v>
    <v>       0.50000000       0.49921954       0.50593311 </v>
    <v>       0.25000000       0.49921954       0.50593311 </v>
    <v>       0.75000000       0.49921954       0.50593311 </v>
   </varray>
  </structure>
  <varray name="forces" >
   <v>      -0.00775801      -0.12659073      -0.18951778 </v>
   <v>      -0.36010195      -0.06063215      -0.21525703 </v>
   <v>       0.35591306      -0.10002516      -0.19319691 </v>
   <v>      -0.00423513       0.06329916      -0.06778153 </v>
   <v>      -0.02534331       0.13976380      -0.25898139 </v>
   <v>       0.01666486       0.06329492      -0.05627000 </v>
   <v>       0.03609335       0.05335349      -0.00793496 </v>
   <v>       0.20471136       0.34743410       0.00243935 </v>
   <v>       0.00817134      -0.00237263       0.00169364 </v>
   <v>      -0.14218468       0.15695044       0.04395326 </v>
   <v>      -0.00648303      -0.03639536       0.02968874 </v>
   <v>       0.19509418      -0.10931815       0.32614618 </v>
   <v>       0.38501663      -0.15439445       0.12300351 </v>
   <v>      -0.62734301       0.28061597      -0.08692160 </v>
   <v>      -0.03055150      -0.03624504       0.03756287 </v>
   <v>       0.04735691      -0.21155490      -0.02010024 </v>
   <v>       0.01901554      -0.01101914       0.04302377 </v>
   <v>      -0.01066616      -0.23535221      -0.01311663 </v>
   <v>       0.71419217      -0.04712358      -0.05710640 </v>
   <v>      -0.59225032       0.18660608      -0.09544704 </v>
   <v>      -0.07984090       0.21073330      -0.01752361 </v>
   <v>       0.17767748      -0.16423240       0.06859796 </v>
   <v>       0.01459444       0.00573064       0.04398666 </v>
   <v>      -0.21661324      -0.30286303       0.02626065 </v>
   <v>       0.01361740      -0.01532613       0.04448999 </v>
   <v>       0.37482685       0.05437455      -0.06330459 </v>
   <v>       0.11307439      -0.13266058      -0.38937528 </v>
   <v>      -0.28094705       0.06132368      -0.32408845 </v>
   <v>      -0.22981903       0.00917730      -0.21172308 </v>
   <v>       0.10863469      -1.03895474       0.35326948 </v>
   <v>      -0.02836483      -0.57781996      -0.00168240 </v>
   <v>      -0.03350065      -0.24441851       0.05426977 </v>
   <v>      -0.04254601      -0.24480863      -0.02834693 </v>
   <v>      -0.05894005      -0.24587393       0.34257198 </v>
   <v>       0.32357477      -0.01786581       0.66785345 </v>
   <v>       0.23123176      -0.11372063       0.39891753 </v>
   <v>      -0.45369639      -0.12127360       0.17151813 </v>
   <v>       0.63663969       0.37744523      -0.34611977 </v>
   <v>      -0.67301743       0.32060897       0.29098472 </v>
   <v>      -0.63474678       0.58752033      -0.27187500 </v>
   <v>       0.63837571       0.43322341       0.29146833 </v>
   <v>       0.11867003       0.05728736      -0.00812279 </v>
   <v>       0.06814139       0.09915607      -0.02626347 </v>
   <v>      -0.20701110       0.84556520      -0.35157251 </v>
   <v>      -0.05532743      -0.00262257      -0.06007056 </v>
  </varray>
  <varray name="stress" >
   <v>      -8.34301222      -0.10563446      -0.11686100 </v>
   <v>      -0.10563446      -9.57637095      -0.31733272 </v>
   <v>      -0.11686115      -0.31733261      -2.33006391 </v>
  </varray>
  <energy>
   <i name="e_fr_energy">   -270.71243737 </i>
   <i name="e_wo_entrp">   -270.69343876 </i>
   <i name="e_0_energy">     -0.03799723 </i>
  </energy>
  <time name="totalsc">  245.41  245.65</time>
 </calculation>
 <calculation>
  <scstep>
   <time name="dav">    6.29    6.33</time>
   <time name="total">    7.00    7.04</time>
   <energy>
    <i name="alphaZ">    187.69165091 </i>
    <i name="ewald">  12236.50430298 </i>
    <i name="hartreedc"> -21907.66947438 </i>
    <i name="XCdc">  -1778.68388624 </i>
    <i name="pawpsdc">  19669.50175979 </i>
    <i name="pawaedc"> -17434.95505890 </i>
    <i name="eentropy">     -0.03463341 </i>
    <i name="bandstr">  -1198.49971447 </i>
    <i name="atom">   9955.10090737 </i>
    <i name="e_fr_energy">   -271.04414634 </i>
    <i name="e_wo_entrp">   -271.00951293 </i>
    <i name="e_0_energy">   -271.02682964 </i>
   </energy>
  </scstep>
  <scstep>
   <time name="dav">    6.74    6.74</time>
   <time name="total">    7.46    7.46</time>
   <energy>
    <i name="e_fr_energy">   -271.10509947 </i>
    <i name="e_wo_entrp">   -271.06943399 </i>
    <i name="e_0_energy">   -271.08726673 </i>
   </energy>
  </scstep>
  <scstep>
   <time name="dav">    7.88    7.89</time>
   <time name="total">    8.59    8.61</time>
   <energy>
    <i name="e_fr_energy">   -271.13111010 </i>
    <i name="e_wo_entrp">   -271.09619737 </i>
    <i name="e_0_energy">   -271.11365373 </i>
   </energy>
  </scstep>
  <scstep>
   <time name="dav">    8.19    8.19</time>
   <time name="total">    8.91    8.92</time>
   <energy>
    <i name="e_fr_energy">   -271.08299281 </i>
    <i name="e_wo_entrp">   -271.04799532 </i>
    <i name="e_0_energy">   -271.06549406 </i>
   </energy>
  </scstep>
  <scstep>
   <time name="dav">    7.42    7.42</time>
   <time name="total">    8.14    8.14</time>
   <energy>
    <i name="e_fr_energy">   -271.08454728 </i>
    <i name="e_wo_entrp">   -271.04963697 </i>
    <i name="e_0_energy">   -271.06709213 </i>
   </energy>
  </scstep>
  <scstep>
   <time name="dav">    7.54    7.56</time>
   <time name="total">    8.26    8.28</time>
   <energy>
    <i name="e_fr_energy">   -271.08038388 </i>
    <i name="e_wo_entrp">   -271.04552348 </i>
    <i name="e_0_energy">   -271.06295368 </i>
   </energy>
  </scstep>
  <scstep>
   <time name="dav">    7.73    7.74</time>
   <time name="total">    8.50    8.51</time>
   <energy>
    <i name="e_fr_energy">   -271.08047109 </i>
    <i name="e_wo_entrp">   -271.04530224 </i>
    <i name="e_0_energy">   -271.06288667 </i>
   </energy>
  </scstep>
  <scstep>
   <time name="dav">    7.35    7.35</time>
   <time name="total">    8.07    8.07</time>
   <energy>
    <i name="e_fr_energy">   -271.08010970 </i>
    <i name="e_wo_entrp">   -271.04521348 </i>
    <i name="e_0_energy">   -271.06266159 </i>
   </energy>
  </scstep>
  <scstep>
   <time name="dav">    7.30    7.30</time>
   <time name="total">    8.01    8.02</time>
   <energy>
    <i name="e_fr_energy">   -271.08011482 </i>
    <i name="e_wo_entrp">   -271.04510883 </i>
    <i name="e_0_energy">   -271.06261182 </i>
   </energy>
  </scstep>
  <scstep>
   <time name="dav">    6.92    6.94</time>
   <time name="total">    7.63    7.65</time>
   <energy>
    <i name="e_fr_energy">   -271.08010220 </i>
    <i name="e_wo_entrp">   -271.04517876 </i>
    <i name="e_0_energy">   -271.06264048 </i>
   </energy>
  </scstep>
  <scstep>
   <time name="dav">    6.30    6.30</time>
   <time name="total">    6.60    6.60</time>
   <energy>
    <i name="alphaZ">    187.69165091 </i>
    <i name="ewald">  12236.50430298 </i>
    <i name="hartreedc"> -21908.35879994 </i>
    <i name="XCdc">  -1778.65169375 </i>
    <i name="pawpsdc">  19714.79717180 </i>
    <i name="pawaedc"> -17480.50851179 </i>
    <i name="eentropy">     -0.03494361 </i>
    <i name="bandstr">  -1197.62018716 </i>
    <i name="atom">   9955.10090737 </i>
    <i name="e_fr_energy">   -271.08010318 </i>
    <i name="e_wo_entrp">   -271.04515957 </i>
    <i name="e_0_energy">   -271.06263138 </i>
   </energy>
  </scstep>
  <structure>
   <crystal>
    <varray name="basis" >
     <v>      13.80799961       0.00000000       0.00000000 </v>
     <v>       0.00000000      12.73600006       0.00000000 </v>
     <v>       0.00000000       0.00000000      16.00000000 </v>
    </varray>
    <i name="volume">   2813.73894219 </i>
    <varray name="rec_basis" >
     <v>       0.07242179       0.00000000       0.00000000 </v>
     <v>       0.00000000       0.07851759       0.00000000 </v>
     <v>       0.00000000       0.00000000       0.06250000 </v>
    </varray>
   </crystal>
   <varray name="positions" >
    <v>       0.62497289       0.05033707       0.62856168 </v>
    <v>       0.37374187       0.05058692       0.62848407 </v>
    <v>       0.87624350       0.05043770       0.62855058 </v>
    <v>       0.12498520       0.55105637       0.62892873 </v>
    <v>       0.62491146       0.55134601       0.62835223 </v>
    <v>       0.37505822       0.55105635       0.62896344 </v>
    <v>       0.87512610       0.55101869       0.62910918 </v>
    <v>       0.12571522       0.37589440       0.40759172 </v>
    <v>       0.62502855       0.37456937       0.40758948 </v>
    <v>       0.37450323       0.37517287       0.40771690 </v>
    <v>       0.87497735       0.37444050       0.40767389 </v>
    <v>       0.12568162       0.87416427       0.40856775 </v>
    <v>       0.37634518       0.87399353       0.40795524 </v>
    <v>       0.87280818       0.87564130       0.40732229 </v>
    <v>      -0.00010674       0.12856796       0.37097887 </v>
    <v>       0.50016546       0.12790390       0.37080501 </v>
    <v>       0.25006644       0.12866351       0.37099534 </v>
    <v>       0.74996273       0.12781376       0.37082606 </v>
    <v>       0.00249526       0.62852676       0.37069343 </v>
    <v>       0.49793078       0.62941211       0.37057782 </v>
    <v>       0.74972105       0.62950350       0.37081278 </v>
    <v>       0.00062077       0.30431822       0.59262306 </v>
    <v>       0.50005099       0.30496202       0.59254885 </v>
    <v>       0.24924319       0.30379310       0.59249541 </v>
    <v>       0.75004758       0.30488226       0.59255037 </v>
    <v>       0.00130958       0.80514631       0.59222535 </v>
    <v>       0.50039506       0.80443784       0.59124220 </v>
    <v>       0.24901842       0.80517263       0.59143905 </v>
    <v>       0.74919705       0.80497511       0.59177785 </v>
    <v>       0.12537955       0.17636292       0.49513266 </v>
    <v>       0.62490090       0.17810965       0.49406242 </v>
    <v>       0.37488295       0.17937254       0.49423112 </v>
    <v>       0.87485135       0.17937106       0.49398202 </v>
    <v>       0.12479407       0.67936704       0.49510040 </v>
    <v>       0.62613051       0.68023071       0.49608118 </v>
    <v>       0.37580788       0.67986763       0.49527029 </v>
    <v>       0.87341487       0.67983902       0.49458465 </v>
    <v>       0.00222430       0.00064926       0.50488950 </v>
    <v>       0.49764860       0.00043397       0.50681047 </v>
    <v>       0.24778231       0.00144500       0.50511336 </v>
    <v>       0.75223037       0.00086054       0.50681193 </v>
    <v>       0.00041461       0.49943654       0.50590861 </v>
    <v>       0.50023807       0.49959513       0.50585392 </v>
    <v>       0.24927674       0.50242245       0.50487306 </v>
    <v>       0.74980670       0.49920960       0.50575198 </v>
   </varray>
  </structure>
  <varray name="forces" >
   <v>      -0.01648248      -0.16754474      -0.00476975 </v>
   <v>      -0.44970536      -0.04787206       0.02638486 </v>
   <v>       0.48653423      -0.06652491       0.00589435 </v>
   <v>       0.01760408      -0.02328772       0.09515994 </v>
   <v>       0.00701318      -0.01423337       0.05878629 </v>
   <v>      -0.02630519      -0.03482423       0.04497002 </v>
   <v>       0.01066917      -0.00643381       0.03749246 </v>
   <v>       0.16348526       0.17855881       0.07293352 </v>
   <v>      -0.01405259      -0.06651540       0.01879252 </v>
   <v>      -0.08864677       0.10834077       0.07577803 </v>
   <v>       0.00773003      -0.04452908       0.03826267 </v>
   <v>       0.13750622      -0.18805091       0.16547668 </v>
   <v>       0.30910416      -0.08776886       0.14121536 </v>
   <v>      -0.48323795       0.13108295      -0.01641376 </v>
   <v>       0.01307402       0.07226892      -0.10567767 </v>
   <v>      -0.02109900      -0.17620187      -0.01467341 </v>
   <v>       0.02578722       0.08191025      -0.13810167 </v>
   <v>       0.00465555      -0.17467841      -0.04567614 </v>
   <v>       0.41469330       0.00870204       0.07440901 </v>
   <v>      -0.30868570       0.16437507       0.12370501 </v>
   <v>      -0.12988649       0.17303948       0.03284749 </v>
   <v>       0.13876302      -0.12094667       0.06731394 </v>
   <v>       0.02455966      -0.00798008      -0.01265250 </v>
   <v>      -0.17772373      -0.11463462      -0.03778454 </v>
   <v>      -0.01065103      -0.04137257      -0.00169911 </v>
   <v>       0.18372109       0.06131601      -0.09849146 </v>
   <v>       0.05812445      -0.05419249      -0.15182387 </v>
   <v>      -0.17163000       0.06498104      -0.28260365 </v>
   <v>      -0.06089694       0.03003925      -0.00682974 </v>
   <v>       0.04665533      -0.69170486       0.09266715 </v>
   <v>      -0.00296766      -0.17069324      -0.09148049 </v>
   <v>       0.00798687       0.09680551      -0.06087503 </v>
   <v>      -0.00177309       0.03844648      -0.04013023 </v>
   <v>      -0.02848786      -0.02982067       0.07568578 </v>
   <v>       0.10513222       0.06036712      -0.08226038 </v>
   <v>       0.10920660       0.08561011       0.12237623 </v>
   <v>      -0.08734218       0.04804349      -0.13755267 </v>
   <v>       0.61995771       0.10221489      -0.05476661 </v>
   <v>      -0.42465458       0.09559362       0.03459376 </v>
   <v>      -0.66556266       0.28127528       0.03137392 </v>
   <v>       0.37326063       0.17520943       0.07779662 </v>
   <v>       0.00810387      -0.07551586       0.01437940 </v>
   <v>       0.02388569      -0.02445732      -0.07777757 </v>
   <v>      -0.15062915       0.43659124      -0.02950730 </v>
   <v>       0.02320684      -0.06498802      -0.03674747 </v>
  </varray>
  <varray name="stress" >
   <v>      -7.80588810      -0.05195300      -0.00802332 </v>
   <v>      -0.05195318      -8.64259865      -0.70599944 </v>
   <v>      -0.00802339      -0.70599939      -0.58803300 </v>
  </varray>
  <energy>
   <i name="e_fr_energy">   -271.08010318 </i>
   <i name="e_wo_entrp">   -271.06263138 </i>
   <i name="e_0_energy">     -0.03494361 </i>
  </energy>
  <time name="totalsc">  100.30  100.43</time>
 </calculation>
 <calculation>
  <scstep>
   <time name="dav">    5.66    5.66</time>
   <time name="total">    6.37    6.37</time>
   <energy>
    <i name="alphaZ">    187.69165091 </i>
    <i name="ewald">  12272.56330990 </i>
    <i name="hartreedc"> -21942.06159409 </i>
    <i name="XCdc">  -1778.45978356 </i>
    <i name="pawpsdc">  19714.62743993 </i>
    <i name="pawaedc"> -17480.33859416 </i>
    <i name="eentropy">     -0.03337209 </i>
    <i name="bandstr">  -1200.25725552 </i>
    <i name="atom">   9955.10090737 </i>
    <i name="e_fr_energy">   -271.16729129 </i>
    <i name="e_wo_entrp">   -271.13391921 </i>
    <i name="e_0_energy">   -271.15060525 </i>
   </energy>
  </scstep>
  <scstep>
   <time name="dav">    6.64    6.66</time>
   <time name="total">    7.36    7.37</time>
   <energy>
    <i name="e_fr_energy">   -271.21333036 </i>
    <i name="e_wo_entrp">   -271.18002775 </i>
    <i name="e_0_energy">   -271.19667906 </i>
   </energy>
  </scstep>
  <scstep>
   <time name="dav">    8.00    8.00</time>
   <time name="total">    8.76    8.76</time>
   <energy>
    <i name="e_fr_energy">   -271.22385277 </i>
    <i name="e_wo_entrp">   -271.18948268 </i>
    <i name="e_0_energy">   -271.20666773 </i>
   </energy>
  </scstep>
  <scstep>
   <time name="dav">    8.21    8.21</time>
   <time name="total">    8.93    8.93</time>
   <energy>
    <i name="e_fr_energy">   -271.20201273 </i>
    <i name="e_wo_entrp">   -271.16835404 </i>
    <i name="e_0_energy">   -271.18518339 </i>
   </energy>
  </scstep>
  <scstep>
   <time name="dav">    7.41    7.41</time>
   <time name="total">    8.12    8.12</time>
   <energy>
    <i name="e_fr_energy">   -271.20263341 </i>
    <i name="e_wo_entrp">   -271.16919527 </i>
    <i name="e_0_energy">   -271.18591434 </i>
   </energy>
  </scstep>
  <scstep>
   <time name="dav">    8.21    8.23</time>
   <time name="total">    8.98    9.00</time>
   <energy>
    <i name="e_fr_energy">   -271.19892241 </i>
    <i name="e_wo_entrp">   -271.16509124 </i>
    <i name="e_0_energy">   -271.18200683 </i>
   </energy>
  </scstep>
  <scstep>
   <time name="dav">    7.00    7.00</time>
   <time name="total">    7.72    7.72</time>
   <energy>
    <i name="e_fr_energy">   -271.19905748 </i>
    <i name="e_wo_entrp">   -271.16532820 </i>
    <i name="e_0_energy">   -271.18219284 </i>
   </energy>
  </scstep>
  <scstep>
   <time name="dav">    7.51    7.51</time>
   <time name="total">    8.23    8.23</time>
   <energy>
    <i name="e_fr_energy">   -271.19887682 </i>
    <i name="e_wo_entrp">   -271.16513901 </i>
    <i name="e_0_energy">   -271.18200791 </i>
   </energy>
  </scstep>
  <scstep>
   <time name="dav">    7.05    7.08</time>
   <time name="total">    7.77    7.79</time>
   <energy>
    <i name="e_fr_energy">   -271.19886311 </i>
    <i name="e_wo_entrp">   -271.16510007 </i>
    <i name="e_0_energy">   -271.18198159 </i>
   </energy>
  </scstep>
  <scstep>
   <time name="dav">    5.98    5.98</time>
   <time name="total">    6.28    6.28</time>
   <energy>
    <i name="alphaZ">    187.69165091 </i>
    <i name="ewald">  12272.56330990 </i>
    <i name="hartreedc"> -21942.88957317 </i>
    <i name="XCdc">  -1778.43569875 </i>
    <i name="pawpsdc">  19773.29885189 </i>
    <i name="pawaedc"> -17539.28726726 </i>
    <i name="eentropy">     -0.03374236 </i>
    <i name="bandstr">  -1199.20730054 </i>
    <i name="atom">   9955.10090737 </i>
    <i name="e_fr_energy">   -271.19886201 </i>
    <i name="e_wo_entrp">   -271.16511965 </i>
    <i name="e_0_energy">   -271.18199083 </i>
   </energy>
  </scstep>
  <structure>
   <crystal>
    <varray name="basis" >
     <v>      13.80799961       0.00000000       0.00000000 </v>
     <v>       0.00000000      12.73600006       0.00000000 </v>
     <v>       0.00000000       0.00000000      16.00000000 </v>
    </varray>
    <i name="volume">   2813.73894219 </i>
    <varray name="rec_basis" >
     <v>       0.07242179       0.00000000       0.00000000 </v>
     <v>       0.00000000       0.07851759       0.00000000 </v>
     <v>       0.00000000       0.00000000       0.06250000 </v>
    </varray>
   </crystal>
   <varray name="positions" >
    <v>       0.62494749       0.04988761       0.62802606 </v>
    <v>       0.37256258       0.05037164       0.62787571 </v>
    <v>       0.87740906       0.05008256       0.62800457 </v>
    <v>       0.12497133       0.55128111       0.62873717 </v>
    <v>       0.62482846       0.55184224       0.62762030 </v>
    <v>       0.37511280       0.55128108       0.62880441 </v>
    <v>       0.87524430       0.55120813       0.62908675 </v>
    <v>       0.12638563       0.37712797       0.40759862 </v>
    <v>       0.62505531       0.37456095       0.40759426 </v>
    <v>       0.37403760       0.37573012       0.40784112 </v>
    <v>       0.87495612       0.37431127       0.40775779 </v>
    <v>       0.12632053       0.87377614       0.40948951 </v>
    <v>       0.37760606       0.87344535       0.40830288 </v>
    <v>       0.87075371       0.87663763       0.40707663 </v>
    <v>      -0.00020679       0.12843927       0.37108503 </v>
    <v>       0.50032054       0.12715277       0.37074820 </v>
    <v>       0.25012871       0.12862439       0.37111693 </v>
    <v>       0.74992780       0.12697814       0.37078899 </v>
    <v>       0.00483414       0.62835945       0.37053203 </v>
    <v>       0.49599124       0.63007465       0.37030807 </v>
    <v>       0.74945958       0.63025171       0.37076325 </v>
    <v>       0.00120264       0.30373511       0.59281693 </v>
    <v>       0.50009879       0.30498237       0.59267317 </v>
    <v>       0.24853381       0.30271778       0.59256963 </v>
    <v>       0.75009217       0.30482784       0.59267611 </v>
    <v>       0.00253708       0.80533937       0.59204644 </v>
    <v>       0.50076536       0.80396683       0.59014174 </v>
    <v>       0.24809836       0.80539036       0.59052311 </v>
    <v>       0.74844443       0.80500769       0.59117947 </v>
    <v>       0.12573531       0.17267410       0.49613107 </v>
    <v>       0.62480801       0.17605809       0.49405766 </v>
    <v>       0.37477324       0.17850473       0.49438450 </v>
    <v>       0.87471202       0.17850187       0.49390190 </v>
    <v>       0.12460105       0.67849406       0.49606858 </v>
    <v>       0.62719018       0.68016728       0.49796867 </v>
    <v>       0.37656513       0.67946386       0.49639772 </v>
    <v>       0.87192907       0.67940843       0.49506939 </v>
    <v>       0.00430921       0.00198938       0.50391129 </v>
    <v>       0.49544456       0.00157230       0.50763286 </v>
    <v>       0.24570360       0.00353100       0.50434498 </v>
    <v>       0.75432096       0.00239871       0.50763568 </v>
    <v>       0.00080324       0.49963994       0.50588566 </v>
    <v>       0.50046123       0.49994718       0.50577969 </v>
    <v>       0.24859881       0.50542464       0.50387944 </v>
    <v>       0.74962551       0.49920029       0.50558221 </v>
   </varray>
  </structure>
  <varray name="forces" >
   <v>      -0.03088315      -0.20323655       0.18117728 </v>
   <v>      -0.57518770      -0.01052164       0.29363250 </v>
   <v>       0.64062809      -0.01650596       0.23012062 </v>
   <v>       0.03621374      -0.11992409       0.26050578 </v>
   <v>       0.03543151      -0.19229544       0.39204940 </v>
   <v>      -0.07044383      -0.13873739       0.14552207 </v>
   <v>      -0.01216291      -0.06627751       0.08428902 </v>
   <v>       0.12243042       0.07514888       0.10671499 </v>
   <v>      -0.03454671      -0.12137939       0.02867628 </v>
   <v>      -0.03400078       0.07003967       0.09416461 </v>
   <v>       0.01834298      -0.05328888       0.04135802 </v>
   <v>       0.08614464      -0.24931554       0.00237410 </v>
   <v>       0.23532867      -0.02113821       0.15660921 </v>
   <v>      -0.33995631       0.00593431       0.04235864 </v>
   <v>       0.05523987       0.17043676      -0.25689840 </v>
   <v>      -0.08251655      -0.14709945      -0.01495142 </v>
   <v>       0.02973986       0.16877924      -0.32805056 </v>
   <v>       0.01488350      -0.12143027      -0.08436419 </v>
   <v>       0.14941238       0.04924329       0.16603862 </v>
   <v>      -0.06878683       0.13277786       0.28896098 </v>
   <v>      -0.18333139       0.13509557       0.07895199 </v>
   <v>       0.09893365      -0.08724902       0.07188447 </v>
   <v>       0.03148595      -0.02326778      -0.06083276 </v>
   <v>      -0.13773560       0.01688594      -0.07104360 </v>
   <v>      -0.03087592      -0.06599804      -0.04118383 </v>
   <v>      -0.00044844       0.07063219      -0.10794569 </v>
   <v>       0.00442785       0.03964003       0.08272396 </v>
   <v>      -0.06027159       0.07633697      -0.23065584 </v>
   <v>       0.10721005       0.07475583       0.20046207 </v>
   <v>      -0.01732560      -0.31384417      -0.12391470 </v>
   <v>       0.01826547       0.22659158      -0.17748980 </v>
   <v>       0.05361907       0.43451076      -0.15130374 </v>
   <v>       0.02913456       0.33111971      -0.03320172 </v>
   <v>       0.01946663       0.18755464      -0.20517377 </v>
   <v>      -0.08499092       0.16286202      -0.79891711 </v>
   <v>      -0.03217076       0.28190412      -0.17254432 </v>
   <v>       0.25325202       0.20589984      -0.40782788 </v>
   <v>       0.52653968      -0.19691812       0.22458043 </v>
   <v>      -0.13200135      -0.16550957      -0.23968669 </v>
   <v>      -0.59207947      -0.09323003       0.32080221 </v>
   <v>       0.06236074      -0.11243742      -0.15638053 </v>
   <v>      -0.09029894      -0.19850555       0.03468744 </v>
   <v>      -0.02271467      -0.14360212      -0.12535544 </v>
   <v>      -0.09287801       0.07069015       0.26889657 </v>
   <v>       0.09711608      -0.12512725      -0.00981927 </v>
  </varray>
  <varray name="stress" >
   <v>      -7.00660633       0.01003964       0.06713817 </v>
   <v>       0.01003955      -7.22754657      -1.12250517 </v>
   <v>       0.06713801      -1.12250549       1.40780830 </v>
  </varray>
  <energy>
   <i name="e_fr_energy">   -271.19886201 </i>
   <i name="e_wo_entrp">   -271.18199083 </i>
   <i name="e_0_energy">     -0.03374236 </i>
  </energy>
  <time name="totalsc">   91.76   91.84</time>
 </calculation>
 <calculation>
  <scstep>
   <time name="dav">    5.66    5.66</time>
   <time name="total">    6.38    6.38</time>
   <energy>
    <i name="alphaZ">    187.69165091 </i>
    <i name="ewald">  12250.18910182 </i>
    <i name="hartreedc"> -21921.60268590 </i>
    <i name="XCdc">  -1778.58623054 </i>
    <i name="pawpsdc">  19773.31649812 </i>
    <i name="pawaedc"> -17539.30447599 </i>
    <i name="eentropy">     -0.03380111 </i>
    <i name="bandstr">  -1198.12335013 </i>
    <i name="atom">   9955.10090737 </i>
    <i name="e_fr_energy">   -271.35238546 </i>
    <i name="e_wo_entrp">   -271.31858434 </i>
    <i name="e_0_energy">   -271.33548490 </i>
   </energy>
  </scstep>
  <scstep>
   <time name="dav">    6.83    6.85</time>
   <time name="total">    7.54    7.57</time>
   <energy>
    <i name="e_fr_energy">   -271.41653413 </i>
    <i name="e_wo_entrp">   -271.38419691 </i>
    <i name="e_0_energy">   -271.40036552 </i>
   </energy>
  </scstep>
  <scstep>
   <time name="dav">    8.15    8.15</time>
   <time name="total">    8.86    8.86</time>
   <energy>
    <i name="e_fr_energy">   -271.42007906 </i>
    <i name="e_wo_entrp">   -271.38563492 </i>
    <i name="e_0_energy">   -271.40285699 </i>
   </energy>
  </scstep>
  <scstep>
   <time name="dav">    7.95    7.95</time>
   <time name="total">    8.66    8.66</time>
   <energy>
    <i name="e_fr_energy">   -271.40056526 </i>
    <i name="e_wo_entrp">   -271.36723928 </i>
    <i name="e_0_energy">   -271.38390227 </i>
   </energy>
  </scstep>
  <scstep>
   <time name="dav">    7.47    7.47</time>
   <time name="total">    8.18    8.18</time>
   <energy>
    <i name="e_fr_energy">   -271.40113077 </i>
    <i name="e_wo_entrp">   -271.36820527 </i>
    <i name="e_0_energy">   -271.38466802 </i>
   </energy>
  </scstep>
  <scstep>
   <time name="dav">    7.81    7.83</time>
   <time name="total">    8.52    8.54</time>
   <energy>
    <i name="e_fr_energy">   -271.39766939 </i>
    <i name="e_wo_entrp">   -271.36420532 </i>
    <i name="e_0_energy">   -271.38093735 </i>
   </energy>
  </scstep>
  <scstep>
   <time name="dav">    7.28    7.28</time>
   <time name="total">    7.99    7.99</time>
   <energy>
    <i name="e_fr_energy">   -271.39782008 </i>
    <i name="e_wo_entrp">   -271.36442221 </i>
    <i name="e_0_energy">   -271.38112114 </i>
   </energy>
  </scstep>
  <scstep>
   <time name="dav">    7.39    7.39</time>
   <time name="total">    8.10    8.10</time>
   <energy>
    <i name="e_fr_energy">   -271.39760880 </i>
    <i name="e_wo_entrp">   -271.36421601 </i>
    <i name="e_0_energy">   -271.38091241 </i>
   </energy>
  </scstep>
  <scstep>
   <time name="dav">    6.88    6.88</time>
   <time name="total">    7.59    7.60</time>
   <energy>
    <i name="e_fr_energy">   -271.39760699 </i>
    <i name="e_wo_entrp">   -271.36421019 </i>
    <i name="e_0_energy">   -271.38090859 </i>
   </energy>
  </scstep>
  <scstep>
   <time name="dav">    6.19    6.21</time>
   <time name="total">    6.49    6.51</time>
   <energy>
    <i name="alphaZ">    187.69165091 </i>
    <i name="ewald">  12250.18910182 </i>
    <i name="hartreedc"> -21921.99888775 </i>
    <i name="XCdc">  -1778.57470753 </i>
    <i name="pawpsdc">  19729.92620810 </i>
    <i name="pawaedc"> -17495.87168063 </i>
    <i name="eentropy">     -0.03336786 </i>
    <i name="bandstr">  -1197.82683429 </i>
    <i name="atom">   9955.10090737 </i>
    <i name="e_fr_energy">   -271.39760985 </i>
    <i name="e_wo_entrp">   -271.36424199 </i>
    <i name="e_0_energy">   -271.38092592 </i>
   </energy>
  </scstep>
  <structure>
   <crystal>
    <varray name="basis" >
     <v>      13.80799961       0.00000000       0.00000000 </v>
     <v>       0.00000000      12.73600006       0.00000000 </v>
     <v>       0.00000000       0.00000000      16.00000000 </v>
    </varray>
    <i name="volume">   2813.73894219 </i>
    <varray name="rec_basis" >
     <v>       0.07242179       0.00000000       0.00000000 </v>
     <v>       0.00000000       0.07851759       0.00000000 </v>
     <v>       0.00000000       0.00000000       0.06250000 </v>
    </varray>
   </crystal>
   <varray name="positions" >
    <v>       0.62480309       0.04868560       0.62833173 </v>
    <v>       0.36942101       0.05018645       0.62853742 </v>
    <v>       0.88081335       0.04978087       0.62847881 </v>
    <v>       0.12511269       0.55088562       0.62954720 </v>
    <v>       0.62492230       0.55129510       0.62855525 </v>
    <v>       0.37485549       0.55080096       0.62922359 </v>
    <v>       0.87526954       0.55103133       0.62937418 </v>
    <v>       0.12732291       0.37825600       0.40798512 </v>
    <v>       0.62492912       0.37400959       0.40770000 </v>
    <v>       0.37359833       0.37640204       0.40825782 </v>
    <v>       0.87501862       0.37398882       0.40795961 </v>
    <v>       0.12708710       0.87240614       0.41008833 </v>
    <v>       0.37938988       0.87299920       0.40908624 </v>
    <v>       0.86802758       0.87730240       0.40707096 </v>
    <v>      -0.00004169       0.12912348       0.37023322 </v>
    <v>       0.50007752       0.12601008       0.37065829 </v>
    <v>       0.25029198       0.12935850       0.37002025 </v>
    <v>       0.74996718       0.12589679       0.37046319 </v>
    <v>       0.00695190       0.62847380       0.37102316 </v>
    <v>       0.49446373       0.63109620       0.37116991 </v>
    <v>       0.74853153       0.63133854       0.37101421 </v>
    <v>       0.00198574       0.30296922       0.59319847 </v>
    <v>       0.50026002       0.30489074       0.59253498 </v>
    <v>       0.24750807       0.30210507       0.59236279 </v>
    <v>       0.74999263       0.30449614       0.59260918 </v>
    <v>       0.00332135       0.80578071       0.59154537 </v>
    <v>       0.50102089       0.80384348       0.58973317 </v>
    <v>       0.24725907       0.80587316       0.58911067 </v>
    <v>       0.74840722       0.80536481       0.59151400 </v>
    <v>       0.12589127       0.16890001       0.49632681 </v>
    <v>       0.62482430       0.17576343       0.49341913 </v>
    <v>       0.37492544       0.17990339       0.49394100 </v>
    <v>       0.87474366       0.17943459       0.49373172 </v>
    <v>       0.12455820       0.67877861       0.49595402 </v>
    <v>       0.62751620       0.68085921       0.49631702 </v>
    <v>       0.37691663       0.68047328       0.49650197 </v>
    <v>       0.87202822       0.68005881       0.49391964 </v>
    <v>       0.00782894       0.00196190       0.50408891 </v>
    <v>       0.49348539       0.00155685       0.50730136 </v>
    <v>       0.24191593       0.00444758       0.50500150 </v>
    <v>       0.75591855       0.00287804       0.50760333 </v>
    <v>       0.00067750       0.49887732       0.50599515 </v>
    <v>       0.50050990       0.49952673       0.50528333 </v>
    <v>       0.24777931       0.50766528       0.50420586 </v>
    <v>       0.74991238       0.49863151       0.50543833 </v>
   </varray>
  </structure>
  <varray name="forces" >
   <v>      -0.04994956      -0.12533816      -0.06916417 </v>
   <v>      -0.40086238       0.11505736       0.03832919 </v>
   <v>       0.47211956       0.05857442       0.01763534 </v>
   <v>      -0.05550548      -0.05990078       0.12416946 </v>
   <v>       0.02500546      -0.03760406      -0.05149299 </v>
   <v>      -0.00831848      -0.09967846       0.00573169 </v>
   <v>      -0.01464170       0.00548604      -0.10089157 </v>
   <v>       0.09426854       0.03538478       0.10665369 </v>
   <v>      -0.02008986      -0.08433403      -0.00099668 </v>
   <v>      -0.00923641       0.08468057       0.05152946 </v>
   <v>       0.02230136      -0.00548645       0.00676141 </v>
   <v>       0.05003614      -0.20587809      -0.17437348 </v>
   <v>       0.08589620       0.07725132       0.08151527 </v>
   <v>      -0.11360897      -0.03897493       0.00978239 </v>
   <v>       0.03555587       0.07225561      -0.07859245 </v>
   <v>      -0.09293042      -0.07766602      -0.07873635 </v>
   <v>       0.02937419       0.04210461      -0.10644228 </v>
   <v>       0.05341340      -0.04998274      -0.08206071 </v>
   <v>      -0.06011880      -0.00266990       0.00235720 </v>
   <v>       0.05553838       0.04514029       0.03485850 </v>
   <v>      -0.04687027      -0.00046170      -0.14031751 </v>
   <v>       0.06474659      -0.07783754       0.06318130 </v>
   <v>       0.01050262      -0.03946214      -0.09622441 </v>
   <v>      -0.09678926       0.05737028      -0.06257998 </v>
   <v>      -0.01860916      -0.07519771      -0.06941062 </v>
   <v>      -0.07518496       0.00523148      -0.08513023 </v>
   <v>       0.01281620       0.09021684       0.12336697 </v>
   <v>      -0.00886265       0.04156471      -0.11947962 </v>
   <v>       0.15192070       0.01239693       0.08520762 </v>
   <v>      -0.05500627       0.04632519      -0.21779345 </v>
   <v>       0.00403661       0.15025259       0.00180243 </v>
   <v>       0.01624482       0.16739863       0.07563759 </v>
   <v>       0.03974669       0.09048147       0.08267352 </v>
   <v>       0.07343672       0.01086749       0.06241310 </v>
   <v>      -0.17758696      -0.05657853      -0.15860949 </v>
   <v>      -0.13931001       0.14946254       0.06188973 </v>
   <v>       0.26780759       0.05618285      -0.03027532 </v>
   <v>       0.25694928      -0.07661459       0.02359709 </v>
   <v>       0.02279006      -0.10204908       0.04586585 </v>
   <v>      -0.31178205      -0.03111611       0.04762830 </v>
   <v>      -0.04616526      -0.08627715       0.09580943 </v>
   <v>      -0.04458367      -0.06202609       0.09360106 </v>
   <v>       0.03109813       0.01336784       0.07485441 </v>
   <v>      -0.04376729      -0.11438290       0.28469450 </v>
   <v>       0.01417479       0.08246336       0.02102479 </v>
  </varray>
  <varray name="stress" >
   <v>      -7.38777407      -0.01366414      -0.07915013 </v>
   <v>      -0.01366432      -7.22292443      -0.12955682 </v>
   <v>      -0.07914999      -0.12955644       0.19340134 </v>
  </varray>
  <energy>
   <i name="e_fr_energy">   -271.39760985 </i>
   <i name="e_wo_entrp">   -271.38092592 </i>
   <i name="e_0_energy">     -0.03336786 </i>
  </energy>
  <time name="totalsc">   91.49   91.58</time>
 </calculation>
 <calculation>
  <scstep>
   <time name="dav">    5.57    5.57</time>
   <time name="total">    6.28    6.28</time>
   <energy>
    <i name="alphaZ">    187.69165091 </i>
    <i name="ewald">  12240.63932443 </i>
    <i name="hartreedc"> -21912.78407359 </i>
    <i name="XCdc">  -1778.63631551 </i>
    <i name="pawpsdc">  19729.43892265 </i>
    <i name="pawaedc"> -17495.38405156 </i>
    <i name="eentropy">     -0.03378667 </i>
    <i name="bandstr">  -1197.44376094 </i>
    <i name="atom">   9955.10090737 </i>
    <i name="e_fr_energy">   -271.41118291 </i>
    <i name="e_wo_entrp">   -271.37739624 </i>
    <i name="e_0_energy">   -271.39428957 </i>
   </energy>
  </scstep>
  <scstep>
   <time name="dav">    7.01    7.03</time>
   <time name="total">    7.72    7.75</time>
   <energy>
    <i name="e_fr_energy">   -271.42499628 </i>
    <i name="e_wo_entrp">   -271.39190685 </i>
    <i name="e_0_energy">   -271.40845156 </i>
   </energy>
  </scstep>
  <scstep>
   <time name="dav">    8.85    8.89</time>
   <time name="total">    9.56    9.60</time>
   <energy>
    <i name="e_fr_energy">   -271.42504284 </i>
    <i name="e_wo_entrp">   -271.39095115 </i>
    <i name="e_0_energy">   -271.40799700 </i>
   </energy>
  </scstep>
  <scstep>
   <time name="dav">    7.90    7.90</time>
   <time name="total">    8.61    8.61</time>
   <energy>
    <i name="e_fr_energy">   -271.42116058 </i>
    <i name="e_wo_entrp">   -271.38757237 </i>
    <i name="e_0_energy">   -271.40436647 </i>
   </energy>
  </scstep>
  <scstep>
   <time name="dav">    7.44    7.44</time>
   <time name="total">    8.15    8.15</time>
   <energy>
    <i name="e_fr_energy">   -271.42127450 </i>
    <i name="e_wo_entrp">   -271.38783683 </i>
    <i name="e_0_energy">   -271.40455567 </i>
   </energy>
  </scstep>
  <scstep>
   <time name="dav">    7.64    7.66</time>
   <time name="total">    8.35    8.38</time>
   <energy>
    <i name="e_fr_energy">   -271.42058217 </i>
    <i name="e_wo_entrp">   -271.38691119 </i>
    <i name="e_0_energy">   -271.40374668 </i>
   </energy>
  </scstep>
  <scstep>
   <time name="dav">    7.44    7.44</time>
   <time name="total">    8.17    8.18</time>
   <energy>
    <i name="e_fr_energy">   -271.42059947 </i>
    <i name="e_wo_entrp">   -271.38697513 </i>
    <i name="e_0_energy">   -271.40378730 </i>
   </energy>
  </scstep>
  <scstep>
   <time name="dav">    7.35    7.35</time>
   <time name="total">    8.06    8.06</time>
   <energy>
    <i name="e_fr_energy">   -271.42056262 </i>
    <i name="e_wo_entrp">   -271.38694219 </i>
    <i name="e_0_energy">   -271.40375240 </i>
   </energy>
  </scstep>
  <scstep>
   <time name="dav">    4.73    4.73</time>
   <time name="total">    5.02    5.03</time>
   <energy>
    <i name="alphaZ">    187.69165091 </i>
    <i name="ewald">  12240.63932443 </i>
    <i name="hartreedc"> -21913.07785948 </i>
    <i name="XCdc">  -1778.63282899 </i>
    <i name="pawpsdc">  19715.52129968 </i>
    <i name="pawaedc"> -17481.45703808 </i>
    <i name="eentropy">     -0.03363383 </i>
    <i name="bandstr">  -1197.17238525 </i>
    <i name="atom">   9955.10090737 </i>
    <i name="e_fr_energy">   -271.42056322 </i>
    <i name="e_wo_entrp">   -271.38692940 </i>
    <i name="e_0_energy">   -271.40374631 </i>
   </energy>
  </scstep>
  <structure>
   <crystal>
    <varray name="basis" >
     <v>      13.80799961       0.00000000       0.00000000 </v>
     <v>       0.00000000      12.73600006       0.00000000 </v>
     <v>       0.00000000       0.00000000      16.00000000 </v>
    </varray>
    <i name="volume">   2813.73894219 </i>
    <varray name="rec_basis" >
     <v>       0.07242179       0.00000000       0.00000000 </v>
     <v>       0.00000000       0.07851759       0.00000000 </v>
     <v>       0.00000000       0.00000000       0.06250000 </v>
    </varray>
   </crystal>
   <varray name="positions" >
    <v>       0.62473656       0.04813180       0.62847256 </v>
    <v>       0.36797357       0.05010112       0.62884230 </v>
    <v>       0.88238183       0.04964188       0.62869732 </v>
    <v>       0.12517782       0.55070341       0.62992041 </v>
    <v>       0.62496554       0.55104301       0.62898601 </v>
    <v>       0.37473694       0.55057975       0.62941672 </v>
    <v>       0.87528117       0.55094987       0.62950661 </v>
    <v>       0.12775475       0.37877572       0.40816319 </v>
    <v>       0.62487098       0.37375556       0.40774872 </v>
    <v>       0.37339594       0.37671162       0.40844981 </v>
    <v>       0.87504742       0.37384026       0.40805259 </v>
    <v>       0.12744028       0.87177494       0.41036422 </v>
    <v>       0.38021176       0.87279364       0.40944716 </v>
    <v>       0.86677155       0.87760868       0.40706835 </v>
    <v>       0.00003438       0.12943872       0.36984076 </v>
    <v>       0.49996555       0.12548360       0.37061686 </v>
    <v>       0.25036720       0.12969673       0.36951497 </v>
    <v>       0.74998533       0.12539858       0.37031309 </v>
    <v>       0.00792763       0.62852648       0.37124944 </v>
    <v>       0.49375995       0.63156686       0.37156699 </v>
    <v>       0.74810394       0.63183929       0.37112984 </v>
    <v>       0.00234654       0.30261635       0.59337426 </v>
    <v>       0.50033431       0.30484852       0.59247131 </v>
    <v>       0.24703548       0.30182278       0.59226750 </v>
    <v>       0.74994677       0.30434331       0.59257834 </v>
    <v>       0.00368269       0.80598405       0.59131451 </v>
    <v>       0.50113861       0.80378665       0.58954492 </v>
    <v>       0.24687238       0.80609561       0.58845991 </v>
    <v>       0.74839008       0.80552935       0.59166812 </v>
    <v>       0.12596313       0.16716116       0.49641700 </v>
    <v>       0.62483180       0.17562768       0.49312494 </v>
    <v>       0.37499556       0.18054781       0.49373666 </v>
    <v>       0.87475824       0.17986433       0.49365331 </v>
    <v>       0.12453846       0.67890971       0.49590124 </v>
    <v>       0.62766641       0.68117801       0.49555604 </v>
    <v>       0.37707857       0.68093836       0.49655000 </v>
    <v>       0.87207391       0.68035847       0.49338991 </v>
    <v>       0.00945061       0.00194923       0.50417075 </v>
    <v>       0.49258273       0.00154973       0.50714862 </v>
    <v>       0.24017081       0.00486988       0.50530398 </v>
    <v>       0.75665462       0.00309889       0.50758842 </v>
    <v>       0.00061956       0.49852595       0.50604560 </v>
    <v>       0.50053233       0.49933301       0.50505464 </v>
    <v>       0.24740174       0.50869763       0.50435626 </v>
    <v>       0.75004456       0.49836945       0.50537204 </v>
   </varray>
  </structure>
  <varray name="forces" >
   <v>      -0.05916525      -0.08755469      -0.17791320 </v>
   <v>      -0.32453074       0.16926733      -0.06690506 </v>
   <v>       0.39620717       0.09331156      -0.07093066 </v>
   <v>      -0.09734244      -0.03463188       0.06654049 </v>
   <v>       0.02077340       0.02405038      -0.23773829 </v>
   <v>       0.01902609      -0.08077639      -0.05640259 </v>
   <v>      -0.01511014       0.03478147      -0.18171490 </v>
   <v>       0.08077296       0.02548851       0.10240156 </v>
   <v>      -0.01278390      -0.06611805      -0.01399146 </v>
   <v>       0.00244047       0.09300648       0.02979078 </v>
   <v>       0.02378460       0.01939661      -0.01107298 </v>
   <v>       0.03450847      -0.17944350      -0.26444750 </v>
   <v>       0.01842955       0.11674028       0.03506711 </v>
   <v>      -0.00877115      -0.06785387      -0.01843870 </v>
   <v>       0.02935647       0.02944221      -0.00331223 </v>
   <v>      -0.09820378      -0.04628142      -0.10721553 </v>
   <v>       0.02454495      -0.01153680      -0.01065501 </v>
   <v>       0.07010005      -0.01668045      -0.08129616 </v>
   <v>      -0.16078726      -0.03058741      -0.08109389 </v>
   <v>       0.11575744       0.00273362      -0.08870842 </v>
   <v>       0.02233071      -0.06661771      -0.25317536 </v>
   <v>       0.04608040      -0.07249829       0.05885895 </v>
   <v>      -0.00026781      -0.04736929      -0.11195138 </v>
   <v>      -0.07502735       0.07252420      -0.05789629 </v>
   <v>      -0.01126606      -0.07885567      -0.08050132 </v>
   <v>      -0.10975420      -0.02578265      -0.06824666 </v>
   <v>       0.01590134       0.11396603       0.14359825 </v>
   <v>       0.01840253       0.02686935      -0.06052615 </v>
   <v>       0.17220715      -0.01705891       0.03238798 </v>
   <v>      -0.07474219       0.24208973      -0.25386594 </v>
   <v>      -0.00226844       0.11835849       0.08094348 </v>
   <v>      -0.00096873       0.04989651       0.17356848 </v>
   <v>       0.04303505      -0.01672554       0.13589381 </v>
   <v>       0.09762911      -0.06843370       0.19198431 </v>
   <v>      -0.22746449      -0.14188912       0.13160280 </v>
   <v>      -0.19269226       0.08632703       0.17382151 </v>
   <v>       0.27127408      -0.00729087       0.13900833 </v>
   <v>       0.10892384      -0.03790256      -0.06252570 </v>
   <v>       0.10054910      -0.07111761       0.17697832 </v>
   <v>      -0.15156298      -0.03074887      -0.07200270 </v>
   <v>      -0.10365386      -0.07053242       0.21224986 </v>
   <v>      -0.02233723      -0.00159389       0.11959290 </v>
   <v>       0.05659456       0.08203660       0.16375444 </v>
   <v>      -0.01757804      -0.19729671       0.29014952 </v>
   <v>      -0.02235117       0.17289191       0.03433521 </v>
  </varray>
  <varray name="stress" >
   <v>      -7.44639753      -0.03969857      -0.15206895 </v>
   <v>      -0.03969853      -7.07051345       0.30705684 </v>
   <v>      -0.15206882       0.30705702      -0.25300881 </v>
  </varray>
  <energy>
   <i name="e_fr_energy">   -271.42056322 </i>
   <i name="e_wo_entrp">   -271.40374631 </i>
   <i name="e_0_energy">     -0.03363383 </i>
  </energy>
  <time name="totalsc">   83.21   83.33</time>
 </calculation>
 <calculation>
  <scstep>
   <time name="dav">    5.59    5.59</time>
   <time name="total">    6.31    6.31</time>
   <energy>
    <i name="alphaZ">    187.69165091 </i>
    <i name="ewald">  12238.09436029 </i>
    <i name="hartreedc"> -21910.64754952 </i>
    <i name="XCdc">  -1778.64354413 </i>
    <i name="pawpsdc">  19715.60489626 </i>
    <i name="pawaedc"> -17481.54045170 </i>
    <i name="eentropy">     -0.03523729 </i>
    <i name="bandstr">  -1197.10204899 </i>
    <i name="atom">   9955.10090737 </i>
    <i name="e_fr_energy">   -271.47701681 </i>
    <i name="e_wo_entrp">   -271.44177952 </i>
    <i name="e_0_energy">   -271.45939816 </i>
   </energy>
  </scstep>
  <scstep>
   <time name="dav">    6.92    6.92</time>
   <time name="total">    7.63    7.63</time>
   <energy>
    <i name="e_fr_energy">   -271.50005035 </i>
    <i name="e_wo_entrp">   -271.46603373 </i>
    <i name="e_0_energy">   -271.48304204 </i>
   </energy>
  </scstep>
  <scstep>
   <time name="dav">    7.90    7.92</time>
   <time name="total">    8.61    8.64</time>
   <energy>
    <i name="e_fr_energy">   -271.50077740 </i>
[...]
       <r>    0.7844    0.0000 </r>
       <r>    0.8445    0.0000 </r>
       <r>    0.9152    0.0000 </r>
       <r>    0.9725    0.0000 </r>
       <r>    1.0345    0.0000 </r>
       <r>    1.0839    0.0000 </r>
       <r>    1.1072    0.0000 </r>
       <r>    1.1891    0.0000 </r>
       <r>    1.2176    0.0000 </r>
       <r>    1.2610    0.0000 </r>
       <r>    1.4223    0.0000 </r>
       <r>    1.4470    0.0000 </r>
       <r>    1.4919    0.0000 </r>
       <r>    1.5231    0.0000 </r>
       <r>    1.5535    0.0000 </r>
       <r>    1.5940    0.0000 </r>
       <r>    1.6107    0.0000 </r>
       <r>    1.6862    0.0000 </r>
       <r>    1.7305    0.0000 </r>
       <r>    1.7756    0.0000 </r>
       <r>    1.8041    0.0000 </r>
       <r>    1.8246    0.0000 </r>
       <r>    1.8516    0.0000 </r>
       <r>    1.9039    0.0000 </r>
       <r>    1.9571    0.0000 </r>
       <r>    1.9905    0.0000 </r>
       <r>    2.0310    0.0000 </r>
       <r>    2.0807    0.0000 </r>
       <r>    2.1195    0.0000 </r>
       <r>    2.1668    0.0000 </r>
       <r>    2.2050    0.0000 </r>
       <r>    2.2334    0.0000 </r>
       <r>    2.3215    0.0000 </r>
      </set>
     </set>
    </set>
   </array>
  </eigenvalues>
  <separator name="orbital magnetization" >
   <v name="MAGDIPOLOUT">      0.00000000      0.00000000      0.00000000</v>
  </separator>
  <dos>
   <i name="efermi">     -0.01526317 </i>
   <total>
    <array>
     <dimension dim="1">gridpoints</dimension>
     <dimension dim="2">spin</dimension>
     <field>energy</field>
     <field>total</field>
     <field>integrated</field>
     <set>
      <set comment="spin 1">
       <r>   -13.3690     0.0000     0.0000 </r>
       <r>   -13.3142     0.0000     0.0000 </r>
       <r>   -13.2594     0.0000     0.0000 </r>
       <r>   -13.2046     0.0000     0.0000 </r>
       <r>   -13.1498     0.0000     0.0000 </r>
       <r>   -13.0950     0.0000     0.0000 </r>
       <r>   -13.0402     0.0000     0.0000 </r>
       <r>   -12.9854     0.0000     0.0000 </r>
       <r>   -12.9306     0.0000     0.0000 </r>
       <r>   -12.8758     0.0000     0.0000 </r>
       <r>   -12.8210     0.0000     0.0000 </r>
       <r>   -12.7662     0.0002     0.0000 </r>
       <r>   -12.7114     0.0506     0.0028 </r>
       <r>   -12.6567     1.4630     0.0829 </r>
       <r>   -12.6019     6.6492     0.4473 </r>
       <r>   -12.5471    11.2509     1.0637 </r>
       <r>   -12.4923    10.5605     1.6424 </r>
       <r>   -12.4375     5.9142     1.9664 </r>
       <r>   -12.3827     4.8877     2.2342 </r>
       <r>   -12.3279    11.0857     2.8416 </r>
       <r>   -12.2731    11.5922     3.4768 </r>
       <r>   -12.2183     7.4941     3.8874 </r>
       <r>   -12.1635     7.1426     4.2788 </r>
       <r>   -12.1087    12.3087     4.9532 </r>
       <r>   -12.0539    18.8763     5.9875 </r>
       <r>   -11.9992     8.7180     6.4651 </r>
       <r>   -11.9444     2.8545     6.6215 </r>
       <r>   -11.8896    14.0240     7.3899 </r>
       <r>   -11.8348    18.9304     8.4272 </r>
       <r>   -11.7800    15.0078     9.2495 </r>
       <r>   -11.7252    15.6972    10.1096 </r>
       <r>   -11.6704    17.6861    11.0786 </r>
       <r>   -11.6156    16.1455    11.9633 </r>
       <r>   -11.5608    25.8454    13.3794 </r>
       <r>   -11.5060    31.7761    15.1205 </r>
       <r>   -11.4512    32.1948    16.8845 </r>
       <r>   -11.3964    32.3066    18.6547 </r>
       <r>   -11.3416    30.9416    20.3500 </r>
       <r>   -11.2869    28.8067    21.9284 </r>
       <r>   -11.2321    28.6357    23.4974 </r>
       <r>   -11.1773    26.8388    24.9680 </r>
       <r>   -11.1225    29.9271    26.6077 </r>
       <r>   -11.0677    36.2545    28.5942 </r>
       <r>   -11.0129    38.4320    30.7000 </r>
       <r>   -10.9581    39.6310    32.8714 </r>
       <r>   -10.9033    38.1964    34.9643 </r>
       <r>   -10.8485    45.8641    37.4773 </r>
       <r>   -10.7937    41.0355    39.7257 </r>
       <r>   -10.7389    41.2434    41.9855 </r>
       <r>   -10.6841    41.3417    44.2507 </r>
       <r>   -10.6293    32.7802    46.0468 </r>
       <r>   -10.5746    24.8561    47.4087 </r>
       <r>   -10.5198    27.1406    48.8958 </r>
       <r>   -10.4650    25.9402    50.3172 </r>
       <r>   -10.4102    22.7952    51.5662 </r>
       <r>   -10.3554    34.9164    53.4793 </r>
       <r>   -10.3006    41.1398    55.7334 </r>
       <r>   -10.2458    27.2884    57.2286 </r>
       <r>   -10.1910    12.0040    57.8864 </r>
       <r>   -10.1362     2.0178    57.9969 </r>
       <r>   -10.0814     0.0560    58.0000 </r>
       <r>   -10.0266     0.0002    58.0000 </r>
       <r>    -9.9718     0.0000    58.0000 </r>
       <r>    -9.9170     0.0000    58.0000 </r>
       <r>    -9.8623     0.0000    58.0000 </r>
       <r>    -9.8075     0.0000    58.0000 </r>
       <r>    -9.7527     0.0000    58.0000 </r>
       <r>    -9.6979     0.0000    58.0000 </r>
       <r>    -9.6431     0.0000    58.0000 </r>
       <r>    -9.5883     0.0000    58.0000 </r>
       <r>    -9.5335     0.0000    58.0000 </r>
       <r>    -9.4787     0.0000    58.0000 </r>
       <r>    -9.4239     0.0000    58.0000 </r>
       <r>    -9.3691     0.0000    58.0000 </r>
       <r>    -9.3143     0.0000    58.0000 </r>
       <r>    -9.2595     0.0000    58.0000 </r>
       <r>    -9.2048     0.0000    58.0000 </r>
       <r>    -9.1500     0.0000    58.0000 </r>
       <r>    -9.0952     0.0000    58.0000 </r>
       <r>    -9.0404     0.0000    58.0000 </r>
       <r>    -8.9856     0.0000    58.0000 </r>
       <r>    -8.9308     0.0000    58.0000 </r>
       <r>    -8.8760     0.0000    58.0000 </r>
       <r>    -8.8212     0.0000    58.0000 </r>
       <r>    -8.7664     0.0000    58.0000 </r>
       <r>    -8.7116     0.0000    58.0000 </r>
       <r>    -8.6568     0.0000    58.0000 </r>
       <r>    -8.6020     0.0000    58.0000 </r>
       <r>    -8.5472     0.0000    58.0000 </r>
       <r>    -8.4925     0.0000    58.0000 </r>
       <r>    -8.4377     0.0000    58.0000 </r>
       <r>    -8.3829     0.0000    58.0000 </r>
       <r>    -8.3281     0.0000    58.0000 </r>
       <r>    -8.2733     0.0000    58.0000 </r>
       <r>    -8.2185     0.0000    58.0000 </r>
       <r>    -8.1637     0.0000    58.0000 </r>
       <r>    -8.1089     0.0000    58.0000 </r>
       <r>    -8.0541     0.0000    58.0000 </r>
       <r>    -7.9993     0.0000    58.0000 </r>
       <r>    -7.9445     0.0000    58.0000 </r>
       <r>    -7.8897     0.0000    58.0000 </r>
       <r>    -7.8349     0.0000    58.0000 </r>
       <r>    -7.7802     0.0000    58.0000 </r>
       <r>    -7.7254     0.0000    58.0000 </r>
       <r>    -7.6706     0.0000    58.0000 </r>
       <r>    -7.6158     0.0000    58.0000 </r>
       <r>    -7.5610     0.0000    58.0000 </r>
       <r>    -7.5062     0.0000    58.0000 </r>
       <r>    -7.4514     0.0000    58.0000 </r>
       <r>    -7.3966     0.0000    58.0000 </r>
       <r>    -7.3418     0.0000    58.0000 </r>
       <r>    -7.2870     0.0000    58.0000 </r>
       <r>    -7.2322     0.0000    58.0000 </r>
       <r>    -7.1774     0.0000    58.0000 </r>
       <r>    -7.1226     0.0000    58.0000 </r>
       <r>    -7.0679     0.0000    58.0000 </r>
       <r>    -7.0131     0.0000    58.0000 </r>
       <r>    -6.9583     0.0000    58.0000 </r>
       <r>    -6.9035     0.0000    58.0000 </r>
       <r>    -6.8487     0.0000    58.0000 </r>
       <r>    -6.7939     0.0000    58.0000 </r>
       <r>    -6.7391     0.0000    58.0000 </r>
       <r>    -6.6843     0.0000    58.0000 </r>
       <r>    -6.6295     0.0000    58.0000 </r>
       <r>    -6.5747     0.0000    58.0000 </r>
       <r>    -6.5199     0.0000    58.0000 </r>
       <r>    -6.4651     0.0000    58.0000 </r>
       <r>    -6.4103     0.0000    58.0000 </r>
       <r>    -6.3556     0.0000    58.0000 </r>
       <r>    -6.3008     0.0000    58.0000 </r>
       <r>    -6.2460     0.0000    58.0000 </r>
       <r>    -6.1912     0.0000    58.0000 </r>
       <r>    -6.1364     0.0000    58.0000 </r>
       <r>    -6.0816     0.0000    58.0000 </r>
       <r>    -6.0268     0.0000    58.0000 </r>
       <r>    -5.9720     0.0000    58.0000 </r>
       <r>    -5.9172     0.0000    58.0000 </r>
       <r>    -5.8624     0.0000    58.0000 </r>
       <r>    -5.8076     0.0000    58.0000 </r>
       <r>    -5.7528     0.0000    58.0000 </r>
       <r>    -5.6981     0.0000    58.0000 </r>
       <r>    -5.6433     0.0022    58.0001 </r>
       <r>    -5.5885     0.2257    58.0125 </r>
       <r>    -5.5337     2.8877    58.1707 </r>
       <r>    -5.4789     6.6939    58.5375 </r>
       <r>    -5.4241    10.9324    59.1365 </r>
       <r>    -5.3693    16.0780    60.0174 </r>
       <r>    -5.3145    14.8822    60.8329 </r>
       <r>    -5.2597    16.7916    61.7529 </r>
       <r>    -5.2049    14.0956    62.5252 </r>
       <r>    -5.1501     9.4885    63.0451 </r>
       <r>    -5.0953    13.7193    63.7969 </r>
       <r>    -5.0405    18.0841    64.7877 </r>
       <r>    -4.9858    20.2196    65.8956 </r>
       <r>    -4.9310    22.7670    67.1430 </r>
       <r>    -4.8762    23.5524    68.4335 </r>
       <r>    -4.8214    25.3959    69.8250 </r>
       <r>    -4.7666    28.9488    71.4112 </r>
       <r>    -4.7118    42.0422    73.7148 </r>
       <r>    -4.6570    45.2878    76.1962 </r>
       <r>    -4.6022    42.2513    78.5112 </r>
       <r>    -4.5474    41.9693    80.8108 </r>
       <r>    -4.4926    42.4494    83.1367 </r>
       <r>    -4.4378    41.4201    85.4062 </r>
       <r>    -4.3830    42.4237    87.7307 </r>
       <r>    -4.3282    44.9146    90.1917 </r>
       <r>    -4.2735    46.1114    92.7182 </r>
       <r>    -4.2187    38.9861    94.8543 </r>
       <r>    -4.1639    32.7475    96.6487 </r>
       <r>    -4.1091    33.8496    98.5033 </r>
       <r>    -4.0543    37.8282   100.5760 </r>
       <r>    -3.9995    37.2640   102.6178 </r>
       <r>    -3.9447    37.5968   104.6778 </r>
       <r>    -3.8899    39.2583   106.8289 </r>
       <r>    -3.8351    30.2826   108.4881 </r>
       <r>    -3.7803    34.1072   110.3569 </r>
       <r>    -3.7255    45.1479   112.8307 </r>
       <r>    -3.6707    37.5521   114.8882 </r>
       <r>    -3.6159    40.4537   117.1048 </r>
       <r>    -3.5612    40.1521   119.3048 </r>
       <r>    -3.5064    36.5007   121.3048 </r>
       <r>    -3.4516    39.0449   123.4441 </r>
       <r>    -3.3968    43.6206   125.8342 </r>
       <r>    -3.3420    43.8264   128.2355 </r>
       <r>    -3.2872    41.0306   130.4837 </r>
       <r>    -3.2324    39.0387   132.6227 </r>
       <r>    -3.1776    38.5783   134.7365 </r>
       <r>    -3.1228    34.8397   136.6454 </r>
       <r>    -3.0680    36.0591   138.6212 </r>
       <r>    -3.0132    37.4694   140.6742 </r>
       <r>    -2.9584    43.3938   143.0518 </r>
       <r>    -2.9037    50.9022   145.8409 </r>
       <r>    -2.8489    50.1091   148.5865 </r>
       <r>    -2.7941    46.4249   151.1302 </r>
       <r>    -2.7393    46.1519   153.6590 </r>
       <r>    -2.6845    43.7648   156.0569 </r>
       <r>    -2.6297    39.3135   158.2110 </r>
       <r>    -2.5749    45.8822   160.7250 </r>
       <r>    -2.5201    52.5288   163.6031 </r>
       <r>    -2.4653    51.0871   166.4023 </r>
       <r>    -2.4105    47.0185   168.9786 </r>
       <r>    -2.3557    43.7791   171.3773 </r>
       <r>    -2.3009    43.8704   173.7811 </r>
       <r>    -2.2461    45.2234   176.2590 </r>
       <r>    -2.1914    46.5093   178.8073 </r>
       <r>    -2.1366    51.8198   181.6466 </r>
       <r>    -2.0818    47.1843   184.2320 </r>
       <r>    -2.0270    38.9935   186.3685 </r>
       <r>    -1.9722    47.5503   188.9739 </r>
       <r>    -1.9174    50.9053   191.7631 </r>
       <r>    -1.8626    49.8168   194.4927 </r>
       <r>    -1.8078    44.3408   196.9222 </r>
       <r>    -1.7530    42.5223   199.2521 </r>
       <r>    -1.6982    53.5321   202.1852 </r>
       <r>    -1.6434    61.7781   205.5702 </r>
       <r>    -1.5886    56.4177   208.6614 </r>
       <r>    -1.5338    47.4757   211.2627 </r>
       <r>    -1.4791    48.7356   213.9330 </r>
       <r>    -1.4243    47.1558   216.5168 </r>
       <r>    -1.3695    48.4959   219.1740 </r>
       <r>    -1.3147    55.0807   222.1920 </r>
       <r>    -1.2599    59.5473   225.4547 </r>
       <r>    -1.2051    55.3688   228.4885 </r>
       <r>    -1.1503    52.2164   231.3495 </r>
       <r>    -1.0955    52.9233   234.2493 </r>
       <r>    -1.0407    54.4227   237.2313 </r>
       <r>    -0.9859    45.8642   239.7443 </r>
       <r>    -0.9311    48.2082   242.3857 </r>
       <r>    -0.8763    49.7572   245.1120 </r>
       <r>    -0.8215    48.7071   247.7808 </r>
       <r>    -0.7668    45.6261   250.2807 </r>
       <r>    -0.7120    46.2779   252.8164 </r>
       <r>    -0.6572    42.0322   255.1194 </r>
       <r>    -0.6024    33.4311   256.9512 </r>
       <r>    -0.5476    32.8303   258.7500 </r>
       <r>    -0.4928    27.1792   260.2392 </r>
       <r>    -0.4380    26.4943   261.6909 </r>
       <r>    -0.3832    27.5508   263.2005 </r>
       <r>    -0.3284    24.1382   264.5231 </r>
       <r>    -0.2736    17.5590   265.4852 </r>
       <r>    -0.2188    15.0246   266.3084 </r>
       <r>    -0.1640    17.9055   267.2895 </r>
       <r>    -0.1093    20.4852   268.4119 </r>
       <r>    -0.0545    20.1110   269.5138 </r>
       <r>     0.0003    11.5021   270.1440 </r>
       <r>     0.0551    10.5384   270.7215 </r>
       <r>     0.1099    11.5737   271.3556 </r>
       <r>     0.1647    10.4309   271.9271 </r>
       <r>     0.2195    13.3867   272.6606 </r>
       <r>     0.2743    26.7929   274.1287 </r>
       <r>     0.3291    27.0907   275.6130 </r>
       <r>     0.3839    25.6418   277.0180 </r>
       <r>     0.4387    23.1119   278.2844 </r>
       <r>     0.4935    21.9185   279.4853 </r>
       <r>     0.5483    23.2357   280.7584 </r>
       <r>     0.6030    18.0510   281.7475 </r>
       <r>     0.6578    23.6595   283.0439 </r>
       <r>     0.7126    31.9230   284.7930 </r>
       <r>     0.7674    35.1830   286.7207 </r>
       <r>     0.8222    29.4540   288.3346 </r>
       <r>     0.8770    31.4105   290.0556 </r>
       <r>     0.9318    37.6860   292.1205 </r>
       <r>     0.9866    40.9170   294.3625 </r>
       <r>     1.0414    40.6683   296.5908 </r>
       <r>     1.0962    38.1787   298.6827 </r>
       <r>     1.1510    32.7365   300.4764 </r>
       <r>     1.2058    29.8761   302.1133 </r>
       <r>     1.2606    37.3225   304.1583 </r>
       <r>     1.3153    29.3503   305.7665 </r>
       <r>     1.3701    22.6172   307.0057 </r>
       <r>     1.4249    25.7777   308.4181 </r>
       <r>     1.4797    35.2712   310.3507 </r>
       <r>     1.5345    46.8498   312.9177 </r>
       <r>     1.5893    57.4274   316.0643 </r>
       <r>     1.6441    53.0696   318.9721 </r>
       <r>     1.6989    40.9256   321.2145 </r>
       <r>     1.7537    38.6589   323.3327 </r>
       <r>     1.8085    47.2421   325.9212 </r>
       <r>     1.8633    57.9856   329.0984 </r>
       <r>     1.9181    58.0695   332.2801 </r>
       <r>     1.9729    56.2992   335.3649 </r>
       <r>     2.0276    52.4537   338.2389 </r>
       <r>     2.0824    51.8889   341.0820 </r>
       <r>     2.1372    52.5259   343.9600 </r>
       <r>     2.1920    53.2533   346.8779 </r>
       <r>     2.2468    47.2480   349.4667 </r>
       <r>     2.3016    30.4636   351.1359 </r>
       <r>     2.3564    13.6873   351.8858 </r>
       <r>     2.4112     2.0325   351.9972 </r>
       <r>     2.4660     0.0507   352.0000 </r>
       <r>     2.5208     0.0002   352.0000 </r>
       <r>     2.5756     0.0000   352.0000 </r>
       <r>     2.6304     0.0000   352.0000 </r>
       <r>     2.6851     0.0000   352.0000 </r>
       <r>     2.7399     0.0000   352.0000 </r>
       <r>     2.7947     0.0000   352.0000 </r>
       <r>     2.8495     0.0000   352.0000 </r>
       <r>     2.9043     0.0000   352.0000 </r>
       <r>     2.9591     0.0000   352.0000 </r>
       <r>     3.0139     0.0000   352.0000 </r>
       <r>     3.0687     0.0000   352.0000 </r>
      </set>
     </set>
    </array>
   </total>
  </dos>
 </calculation>
 <structure name="finalpos" >
  <crystal>
   <varray name="basis" >
    <v>      13.80799961       0.00000000       0.00000000 </v>
    <v>       0.00000000      12.73600006       0.00000000 </v>
    <v>       0.00000000       0.00000000      16.00000000 </v>
   </varray>
   <i name="volume">   2813.73894219 </i>
   <varray name="rec_basis" >
    <v>       0.07242179       0.00000000       0.00000000 </v>
    <v>       0.00000000       0.07851759       0.00000000 </v>
    <v>       0.00000000       0.00000000       0.06250000 </v>
   </varray>
  </crystal>
  <varray name="positions" >
   <v>       0.62508010       0.04475266       0.62732065 </v>
   <v>       0.35626280       0.05551761       0.62661404 </v>
   <v>       0.89882821       0.05032304       0.62330497 </v>
   <v>       0.12226673       0.55091631       0.63362853 </v>
   <v>       0.62647258       0.54862564       0.63114639 </v>
   <v>       0.37421544       0.54639722       0.63677914 </v>
   <v>       0.87555501       0.54937683       0.62852141 </v>
   <v>       0.13107324       0.38188158       0.40575591 </v>
   <v>       0.62196453       0.37335221       0.41085426 </v>
   <v>       0.37252981       0.38012706       0.40934243 </v>
   <v>       0.87607712       0.37550609       0.40780448 </v>
   <v>       0.13414522       0.86463849       0.39866510 </v>
   <v>       0.37794803       0.87189515       0.41142002 </v>
   <v>       0.86735094       0.87560442       0.40594522 </v>
   <v>       0.00115488       0.13156838       0.36146779 </v>
   <v>       0.49841546       0.12053975       0.37132296 </v>
   <v>       0.25299091       0.13209351       0.36348028 </v>
   <v>       0.75079986       0.12342450       0.37081851 </v>
   <v>       0.00907397       0.62916169       0.37300511 </v>
   <v>       0.48705930       0.63634591       0.38035356 </v>
   <v>       0.74365602       0.63543609       0.37390724 </v>
   <v>       0.00581389       0.30041341       0.59144857 </v>
   <v>       0.49856251       0.30145774       0.59246671 </v>
   <v>       0.24377367       0.30123801       0.59223924 </v>
   <v>       0.75262006       0.30102940       0.58980150 </v>
   <v>       0.00816161       0.80849295       0.58566610 </v>
   <v>       0.49583393       0.80599250       0.59591655 </v>
   <v>       0.23998439       0.81614098       0.59491941 </v>
   <v>       0.75334455       0.80582117       0.59333754 </v>
   <v>       0.12678462       0.17066753       0.48772689 </v>
   <v>       0.62371722       0.17398560       0.49342029 </v>
   <v>       0.37262514       0.18239878       0.49217243 </v>
   <v>       0.88078690       0.17942402       0.49012487 </v>
   <v>       0.13466026       0.67465954       0.49605007 </v>
   <v>       0.62320713       0.68216506       0.50150763 </v>
   <v>       0.36339679       0.68006819       0.50489359 </v>
   <v>       0.87506680       0.67895748       0.49361129 </v>
   <v>       0.01649156      -0.00042898       0.49327543 </v>
   <v>       0.48731229       0.00058781       0.51026075 </v>
   <v>       0.23476835       0.00641596       0.49905568 </v>
   <v>       0.76182297       0.00284678       0.50937870 </v>
   <v>       0.00287210       0.49804801       0.50691780 </v>
   <v>       0.49790493       0.50031397       0.51070018 </v>
   <v>       0.24816654       0.50793742       0.51035560 </v>
   <v>       0.74940165       0.49824993       0.50571139 </v>
  </varray>
 </structure>
</modeling>
