<?xml version="1.0" encoding="ISO-8859-1"?>
<modeling>
 <generator>
  <i name="program" type="string">vasp </i>
  <i name="version" type="string">5.3.5  </i>
  <i name="subversion" type="string">31Mar14 (build Mar 18 2017 11:34:20) complex                          parallel </i>
  <i name="platform" type="string">LinuxIFC </i>
  <i name="date" type="string">2018 02 12 </i>
  <i name="time" type="string">18:09:55 </i>
 </generator>
 <incar>
  <i type="string" name="SYSTEM"> MoTe2 Phonon calculation</i>
  <i type="string" name="PREC">accurate</i>
  <i type="string" name="ALGO"> Normal</i>
  <i type="logical" name="ADDGRID"> T  </i>
  <i type="int" name="NELMDL">    -5</i>
  <i type="int" name="IBRION">     8</i>
  <i name="EDIFF">      0.00000100</i>
  <i type="int" name="NSW">     1</i>
  <i type="int" name="ISIF">     2</i>
  <i type="int" name="ISYM">     0</i>
  <i name="ENCUT">    400.00000000</i>
  <i name="POTIM">      0.50000000</i>
  <i type="logical" name="LREAL"> F  </i>
  <i type="int" name="ISMEAR">     0</i>
  <i name="SIGMA">      0.05000000</i>
  <i type="int" name="NWRITE">     3</i>
  <i type="logical" name="LWAVE"> F  </i>
  <i type="logical" name="LCHARG"> F  </i>
 </incar>
 <kpoints>
  <generation param="Monkhorst-Pack">
   <v type="int" name="divisions">       4        4        1 </v>
   <v name="usershift">      0.00000000       0.00000000       0.00000000 </v>
   <v name="genvec1">      0.25000000       0.00000000       0.00000000 </v>
   <v name="genvec2">      0.00000000       0.25000000       0.00000000 </v>
   <v name="genvec3">      0.00000000       0.00000000       1.00000000 </v>
   <v name="shift">      0.50000000       0.50000000       0.00000000 </v>
  </generation>
  <varray name="kpointlist" >
   <v>       0.12500000       0.12500000       0.00000000 </v>
   <v>       0.37500000       0.12500000       0.00000000 </v>
   <v>      -0.37500000       0.12500000       0.00000000 </v>
   <v>      -0.12500000       0.12500000       0.00000000 </v>
   <v>       0.12500000       0.37500000       0.00000000 </v>
   <v>       0.37500000       0.37500000       0.00000000 </v>
   <v>      -0.37500000       0.37500000       0.00000000 </v>
   <v>      -0.12500000       0.37500000       0.00000000 </v>
  </varray>
  <varray name="weights" >
   <v>       0.12500000 </v>
   <v>       0.12500000 </v>
   <v>       0.12500000 </v>
   <v>       0.12500000 </v>
   <v>       0.12500000 </v>
   <v>       0.12500000 </v>
   <v>       0.12500000 </v>
   <v>       0.12500000 </v>
  </varray>
 </kpoints>
 <parameters>
  <separator name="general" >
   <i type="string" name="SYSTEM">MoTe2 Phonon calculation</i>
   <i type="logical" name="LCOMPAT"> F  </i>
  </separator>
  <separator name="electronic" >
   <i type="string" name="PREC">accura</i>
   <i name="ENMAX">    400.00000000</i>
   <i name="ENAUG">    368.79200000</i>
   <i name="EDIFF">      0.00000100</i>
   <i type="int" name="IALGO">    38</i>
   <i type="int" name="IWAVPR">    11</i>
   <i type="int" name="NBANDS">   176</i>
   <i name="NELECT">    276.00000000</i>
   <i type="int" name="TURBO">     0</i>
   <i type="int" name="IRESTART">     0</i>
   <i type="int" name="NREBOOT">     0</i>
   <i type="int" name="NMIN">     0</i>
   <i name="EREF">      0.00000000</i>
   <separator name="electronic smearing" >
    <i type="int" name="ISMEAR">     0</i>
    <i name="SIGMA">      0.05000000</i>
    <i name="KSPACING">      0.50000000</i>
    <i type="logical" name="KGAMMA"> T  </i>
   </separator>
   <separator name="electronic projectors" >
    <i type="logical" name="LREAL"> F  </i>
    <v name="ROPT">      0.00000000      0.00000000</v>
    <i type="int" name="LMAXPAW">  -100</i>
    <i type="int" name="LMAXMIX">     2</i>
    <i type="logical" name="NLSPLINE"> F  </i>
   </separator>
   <separator name="electronic startup" >
    <i type="int" name="ISTART">     0</i>
    <i type="int" name="ICHARG">     2</i>
    <i type="int" name="INIWAV">     1</i>
   </separator>
   <separator name="electronic spin" >
    <i type="int" name="ISPIN">     1</i>
    <i type="logical" name="LNONCOLLINEAR"> F  </i>
    <v name="MAGMOM">      1.00000000      1.00000000      1.00000000      1.00000000      1.00000000      1.00000000      1.00000000      1.00000000      1.00000000      1.00000000      1.00000000      1.00000000      1.00000000      1.00000000      1.00000000      1.00000000      1.00000000      1.00000000      1.00000000      1.00000000
      1.00000000      1.00000000      1.00000000      1.00000000      1.00000000      1.00000000      1.00000000      1.00000000      1.00000000      1.00000000      1.00000000      1.00000000      1.00000000      1.00000000      1.00000000      1.00000000      1.00000000      1.00000000      1.00000000      1.00000000
      1.00000000      1.00000000      1.00000000      1.00000000      1.00000000      1.00000000</v>
    <i name="NUPDOWN">     -1.00000000</i>
    <i type="logical" name="LSORBIT"> F  </i>
    <v name="SAXIS">      0.00000000      0.00000000      1.00000000</v>
    <i type="logical" name="LSPIRAL"> F  </i>
    <v name="QSPIRAL">      0.00000000      0.00000000      0.00000000</v>
    <i type="logical" name="LZEROZ"> F  </i>
   </separator>
   <separator name="electronic exchange-correlation" >
    <i type="logical" name="LASPH"> F  </i>
    <i type="logical" name="LMETAGGA"> F  </i>
   </separator>
   <separator name="electronic convergence" >
    <i type="int" name="NELM">    60</i>
    <i type="int" name="NELMDL">    -5</i>
    <i type="int" name="NELMIN">     2</i>
    <i name="ENINI">    400.00000000</i>
    <separator name="electronic convergence detail" >
     <i type="logical" name="LDIAG"> T  </i>
     <i type="logical" name="LSUBROT"> F  </i>
     <i name="WEIMIN">      0.00100000</i>
     <i name="EBREAK">      0.00000000</i>
     <i name="DEPER">      0.30000000</i>
     <i type="int" name="NRMM">     4</i>
     <i name="TIME">      0.40000000</i>
    </separator>
   </separator>
   <separator name="electronic mixer" >
    <i name="AMIX">      0.40000000</i>
    <i name="BMIX">      1.00000000</i>
    <i name="AMIN">      0.10000000</i>
    <i name="AMIX_MAG">      1.60000000</i>
    <i name="BMIX_MAG">      1.00000000</i>
    <separator name="electronic mixer details" >
     <i type="int" name="IMIX">     4</i>
     <i type="int" name="MAXMIX">   -45</i>
     <i name="WC">    100.00000000</i>
     <i type="int" name="INIMIX">     1</i>
     <i type="int" name="MIXPRE">     1</i>
     <i type="int" name="MREMOVE">     5</i>
    </separator>
   </separator>
   <separator name="electronic dipolcorrection" >
    <i type="logical" name="LDIPOL"> F  </i>
    <i type="logical" name="LMONO"> F  </i>
    <i type="int" name="IDIPOL">     0</i>
    <i name="EPSILON">      1.00000000</i>
    <v name="DIPOL">   -100.00000000   -100.00000000   -100.00000000</v>
    <i name="EFIELD">      0.00000000</i>
   </separator>
  </separator>
  <separator name="grids" >
   <i type="int" name="NGX">    90</i>
   <i type="int" name="NGY">    84</i>
   <i type="int" name="NGZ">   108</i>
   <i type="int" name="NGXF">   180</i>
   <i type="int" name="NGYF">   168</i>
   <i type="int" name="NGZF">   216</i>
   <i type="logical" name="ADDGRID"> T  </i>
  </separator>
  <separator name="ionic" >
   <i type="int" name="NSW">     1</i>
   <i type="int" name="IBRION">     8</i>
   <i type="int" name="ISIF">     2</i>
   <i name="PSTRESS">      0.00000000</i>
   <i name="EDIFFG">      0.00001000</i>
   <i type="int" name="NFREE">     0</i>
   <i name="POTIM">      0.50000000</i>
   <i name="SMASS">     -3.00000000</i>
   <i name="SCALEE">      1.00000000</i>
  </separator>
  <separator name="ionic md" >
   <i name="TEBEG">      0.00010000</i>
   <i name="TEEND">      0.00010000</i>
   <i type="int" name="NBLOCK">     1</i>
   <i type="int" name="KBLOCK">     1</i>
   <i type="int" name="NPACO">   256</i>
   <i name="APACO">     16.00000000</i>
  </separator>
  <separator name="symmetry" >
   <i type="int" name="ISYM">     0</i>
   <i name="SYMPREC">      0.00001000</i>
  </separator>
  <separator name="dos" >
   <i type="logical" name="LORBIT"> F  </i>
   <v name="RWIGS">     -1.00000000     -1.00000000</v>
   <i type="int" name="NEDOS">   301</i>
   <i name="EMIN">     10.00000000</i>
   <i name="EMAX">    -10.00000000</i>
   <i name="EFERMI">      0.00000000</i>
  </separator>
  <separator name="writing" >
   <i type="int" name="NWRITE">     3</i>
   <i type="logical" name="LWAVE"> F  </i>
   <i type="logical" name="LCHARG"> F  </i>
   <i type="logical" name="LPARD"> F  </i>
   <i type="logical" name="LVTOT"> F  </i>
   <i type="logical" name="LVHAR"> F  </i>
   <i type="logical" name="LELF"> F  </i>
   <i type="logical" name="LOPTICS"> F  </i>
   <v name="STM">      0.00000000      0.00000000      0.00000000      0.00000000      0.00000000      0.00000000      0.00000000</v>
  </separator>
  <separator name="performance" >
   <i type="int" name="NPAR">    16</i>
   <i type="int" name="NSIM">     4</i>
   <i type="int" name="NBLK">    -1</i>
   <i type="logical" name="LPLANE"> T  </i>
   <i type="logical" name="LSCALAPACK"> T  </i>
   <i type="logical" name="LSCAAWARE"> F  </i>
   <i type="logical" name="LSCALU"> F  </i>
   <i type="logical" name="LASYNC"> F  </i>
   <i type="logical" name="LORBITALREAL"> F  </i>
  </separator>
  <separator name="miscellaneous" >
   <i type="int" name="IDIOT">     3</i>
   <i type="logical" name="LMUSIC"> F  </i>
   <v name="POMASS">    127.60000000     95.94000000</v>
   <v name="DARWINR">      0.00000000      0.00000000</v>
   <v name="DARWINV">      1.00000000      1.00000000</v>
   <i type="logical" name="LCORR"> T  </i>
  </separator>
  <i type="logical" name="GGA_COMPAT"> T  </i>
  <i type="logical" name="LBERRY"> F  </i>
  <i type="int" name="ICORELEVEL">     0</i>
  <i type="logical" name="LDAU"> F  </i>
  <i type="int" name="I_CONSTRAINED_M">     0</i>
  <separator name="electronic exchange-correlation" >
   <i type="string" name="GGA">--</i>
   <i type="int" name="VOSKOWN">     0</i>
   <i type="logical" name="LHFCALC"> F  </i>
   <i type="string" name="PRECFOCK"></i>
   <i type="logical" name="LSYMGRAD"> F  </i>
   <i type="logical" name="LHFONE"> F  </i>
   <i type="logical" name="LRHFCALC"> F  </i>
   <i type="logical" name="LTHOMAS"> F  </i>
   <i type="logical" name="LMODELHF"> F  </i>
   <i name="ENCUT4O">     -1.00000000</i>
   <i type="int" name="EXXOEP">     0</i>
   <i type="int" name="FOURORBIT">     0</i>
   <i name="AEXX">      0.00000000</i>
   <i name="HFALPHA">      0.00000000</i>
   <i name="MCALPHA">      0.00000000</i>
   <i name="ALDAX">      1.00000000</i>
   <i name="AGGAX">      1.00000000</i>
   <i name="ALDAC">      1.00000000</i>
   <i name="AGGAC">      1.00000000</i>
   <i type="int" name="NKREDX">     1</i>
   <i type="int" name="NKREDY">     1</i>
   <i type="int" name="NKREDZ">     1</i>
   <i type="logical" name="SHIFTRED"> F  </i>
   <i type="logical" name="ODDONLY"> F  </i>
   <i type="logical" name="EVENONLY"> F  </i>
   <i type="int" name="LMAXFOCK">     0</i>
   <i type="int" name="NMAXFOCKAE">     0</i>
   <i type="logical" name="LFOCKAEDFT"> F  </i>
   <i name="HFSCREEN">      0.00000000</i>
   <i name="HFSCREENC">      0.00000000</i>
   <i type="int" name="NBANDSGWLOW">     0</i>
  </separator>
  <separator name="vdW DFT" >
   <i type="logical" name="LUSE_VDW"> F  </i>
   <i name="Zab_VDW">     -0.84910000</i>
   <i name="PARAM1">      0.12340000</i>
   <i name="PARAM2">      1.00000000</i>
   <i name="PARAM3">      0.00000000</i>
  </separator>
  <separator name="model GW" >
   <i type="int" name="MODEL_GW">     0</i>
   <i name="MODEL_EPS0">     36.70094272</i>
   <i name="MODEL_ALPHA">      1.00000000</i>
  </separator>
  <separator name="linear response parameters" >
   <i type="logical" name="LEPSILON"> F  </i>
   <i type="logical" name="LRPA"> F  </i>
   <i type="logical" name="LNABLA"> F  </i>
   <i type="logical" name="LVEL"> F  </i>
   <i type="int" name="KINTER">     0</i>
   <i name="CSHIFT">      0.10000000</i>
   <i name="OMEGAMAX">     -1.00000000</i>
   <i name="DEG_THRESHOLD">      0.00200000</i>
  </separator>
  <separator name="orbital magnetization" >
   <i type="logical" name="NUCIND"> F  </i>
   <v name="MAGPOS">      0.00000000      0.00000000      0.00000000</v>
   <i type="logical" name="LNICSALL"> T  </i>
   <i type="logical" name="ORBITALMAG"> F  </i>
   <i type="logical" name="LMAGBLOCH"> F  </i>
   <i type="logical" name="LCHIMAG"> F  </i>
   <i type="logical" name="LGAUGE"> T  </i>
   <i type="int" name="MAGATOM">     0</i>
   <v name="MAGDIPOL">      0.00000000      0.00000000      0.00000000</v>
   <v name="AVECCONST">      0.00000000      0.00000000      0.00000000</v>
  </separator>
  <separator name="response functions" >
   <i type="logical" name="LADDER"> F  </i>
   <i type="logical" name="LFXC"> F  </i>
   <i type="logical" name="LHARTREE"> T  </i>
   <i type="int" name="IBSE">     0</i>
   <i type="logical" name="LTCTE"> F  </i>
   <i type="logical" name="LTETE"> F  </i>
   <i type="logical" name="LTRIPLET"> F  </i>
   <i type="logical" name="LFXCEPS"> F  </i>
   <i type="logical" name="LFXHEG"> F  </i>
   <i type="logical" name="L2ORDER"> F  </i>
   <i type="logical" name="LUSEW"> F  </i>
   <i name="ENCUTGW">     -2.00000000</i>
   <i name="ENCUTGWSOFT">     -2.00000000</i>
   <i name="ENCUTLF">     -1.00000000</i>
   <i type="int" name="LMAXMP2">    -1</i>
   <i name="SCISSOR">      0.00000000</i>
   <i type="int" name="NOMEGA">     0</i>
   <i type="int" name="NOMEGAR">     0</i>
   <i type="int" name="NBANDSGW">    -1</i>
   <i type="int" name="NBANDSO">    -1</i>
   <i type="int" name="NBANDSV">    -1</i>
   <i type="int" name="NELM">     1</i>
   <i type="int" name="DIM">     3</i>
   <i type="int" name="ANTIRES">     0</i>
   <i name="OMEGAMAX">    -30.00000000</i>
   <i name="OMEGAMIN">    -30.00000000</i>
   <i name="OMEGATL">   -200.00000000</i>
   <i type="int" name="OMEGAGRID">     0</i>
   <i name="CSHIFT">     -0.10000000</i>
   <i type="logical" name="SELFENERGY"> F  </i>
   <i type="logical" name="LSPECTRAL"> F  </i>
   <i type="logical" name="ODDONLYGW"> F  </i>
   <i type="logical" name="EVENONLYGW"> F  </i>
   <i type="int" name="NKREDLFX">     1</i>
   <i type="int" name="NKREDLFY">     1</i>
   <i type="int" name="NKREDLFZ">     1</i>
   <i type="int" name="MAXMEM">  1800</i>
   <i type="int" name="TELESCOPE">     0</i>
   <i type="int" name="TAUPAR">     1</i>
  </separator>
  <separator name="External order field" >
   <i name="OFIELD_KAPPA">      0.00000000</i>
   <v name="OFIELD_K">      0.00000000      0.00000000      0.00000000</v>
   <i name="OFIELD_Q6_NEAR">      0.00000000</i>
   <i name="OFIELD_Q6_FAR">      0.00000000</i>
   <i name="OFIELD_A">      0.00000000</i>
  </separator>
 </parameters>
 <atominfo>
  <atoms>      46 </atoms>
  <types>       2 </types>
  <array name="atoms" >
   <dimension dim="1">ion</dimension>
   <field type="string">element</field>
   <field type="int">atomtype</field>
   <set>
    <rc><c>Te</c><c>   1</c></rc>
    <rc><c>Te</c><c>   1</c></rc>
    <rc><c>Te</c><c>   1</c></rc>
    <rc><c>Te</c><c>   1</c></rc>
    <rc><c>Te</c><c>   1</c></rc>
    <rc><c>Te</c><c>   1</c></rc>
    <rc><c>Te</c><c>   1</c></rc>
    <rc><c>Te</c><c>   1</c></rc>
    <rc><c>Te</c><c>   1</c></rc>
    <rc><c>Te</c><c>   1</c></rc>
    <rc><c>Te</c><c>   1</c></rc>
    <rc><c>Te</c><c>   1</c></rc>
    <rc><c>Te</c><c>   1</c></rc>
    <rc><c>Te</c><c>   1</c></rc>
    <rc><c>Te</c><c>   1</c></rc>
    <rc><c>Te</c><c>   1</c></rc>
    <rc><c>Te</c><c>   1</c></rc>
    <rc><c>Te</c><c>   1</c></rc>
    <rc><c>Te</c><c>   1</c></rc>
    <rc><c>Te</c><c>   1</c></rc>
    <rc><c>Te</c><c>   1</c></rc>
    <rc><c>Te</c><c>   1</c></rc>
    <rc><c>Te</c><c>   1</c></rc>
    <rc><c>Te</c><c>   1</c></rc>
    <rc><c>Te</c><c>   1</c></rc>
    <rc><c>Te</c><c>   1</c></rc>
    <rc><c>Te</c><c>   1</c></rc>
    <rc><c>Te</c><c>   1</c></rc>
    <rc><c>Te</c><c>   1</c></rc>
    <rc><c>Te</c><c>   1</c></rc>
    <rc><c>Mo</c><c>   2</c></rc>
    <rc><c>Mo</c><c>   2</c></rc>
    <rc><c>Mo</c><c>   2</c></rc>
    <rc><c>Mo</c><c>   2</c></rc>
    <rc><c>Mo</c><c>   2</c></rc>
    <rc><c>Mo</c><c>   2</c></rc>
    <rc><c>Mo</c><c>   2</c></rc>
    <rc><c>Mo</c><c>   2</c></rc>
    <rc><c>Mo</c><c>   2</c></rc>
    <rc><c>Mo</c><c>   2</c></rc>
    <rc><c>Mo</c><c>   2</c></rc>
    <rc><c>Mo</c><c>   2</c></rc>
    <rc><c>Mo</c><c>   2</c></rc>
    <rc><c>Mo</c><c>   2</c></rc>
    <rc><c>Mo</c><c>   2</c></rc>
    <rc><c>Mo</c><c>   2</c></rc>
   </set>
  </array>
  <array name="atomtypes" >
   <dimension dim="1">type</dimension>
   <field type="int">atomspertype</field>
   <field type="string">element</field>
   <field>mass</field>
   <field>valence</field>
   <field type="string">pseudopotential</field>
   <set>
    <rc><c>  30</c><c>Te</c><c>    127.60000000</c><c>      6.00000000</c><c>  PAW_PBE Te 08Apr2002                  </c></rc>
    <rc><c>  16</c><c>Mo</c><c>     95.94000000</c><c>      6.00000000</c><c>  PAW_PBE Mo 08Apr2002                  </c></rc>
   </set>
  </array>
 </atominfo>
 <structure name="initialpos" >
  <crystal>
   <varray name="basis" >
    <v>      13.80799961       0.00000000       0.00000000 </v>
    <v>       0.00000000      12.73600006       0.00000000 </v>
    <v>       0.00000000       0.00000000      16.00000000 </v>
   </varray>
   <i name="volume">   2813.73894219 </i>
   <varray name="rec_basis" >
    <v>       0.07242179       0.00000000       0.00000000 </v>
    <v>       0.00000000       0.07851759       0.00000000 </v>
    <v>       0.00000000       0.00000000       0.06250000 </v>
   </varray>
  </crystal>
  <varray name="positions" >
   <v>       0.62500000       0.04711080       0.63068768 </v>
   <v>       0.35310285       0.05305354       0.62687551 </v>
   <v>       0.89689716       0.05305354       0.62687550 </v>
   <v>       0.12500001       0.55248226       0.62834861 </v>
   <v>       0.62500000       0.54769795       0.63184236 </v>
   <v>       0.37251689       0.54865522       0.63006937 </v>
   <v>       0.87748311       0.54865522       0.63006936 </v>
   <v>       0.12500000       0.37605509       0.40528699 </v>
   <v>       0.62500000       0.37273443       0.41210369 </v>
   <v>       0.37647181       0.37496356       0.40909216 </v>
   <v>       0.87352820       0.37496357       0.40909215 </v>
   <v>       0.12499999       0.87005309       0.39633040 </v>
   <v>       0.38429212       0.87699220       0.40831257 </v>
   <v>       0.86570788       0.87699220       0.40831257 </v>
   <v>       0.99810815       0.13120424       0.36377818 </v>
   <v>       0.49979290       0.12213396       0.37309457 </v>
   <v>       0.25189187       0.13120425       0.36377817 </v>
   <v>       0.75020710       0.12213397       0.37309456 </v>
   <v>       0.99709627       0.62743413       0.37023164 </v>
   <v>       0.50367557       0.63549681       0.37632349 </v>
   <v>       0.25290374       0.62743413       0.37023164 </v>
   <v>       0.74632443       0.63549681       0.37632347 </v>
   <v>       0.00651523       0.30123324       0.59265324 </v>
   <v>       0.49759078       0.30244798       0.59303177 </v>
   <v>       0.24348477       0.30123325       0.59265323 </v>
   <v>       0.75240922       0.30244797       0.59303175 </v>
   <v>       0.00847088       0.81032112       0.58831521 </v>
   <v>       0.49606610       0.80720497       0.59605485 </v>
   <v>       0.24152911       0.81032113       0.58831522 </v>
   <v>       0.75393389       0.80720497       0.59605484 </v>
   <v>       0.12499998       0.16942130       0.48853505 </v>
   <v>       0.62500000       0.17509532       0.49592956 </v>
   <v>       0.37179175       0.18052620       0.49293513 </v>
   <v>       0.87820825       0.18052619       0.49293516 </v>
   <v>       0.12500000       0.67730843       0.48998966 </v>
   <v>       0.62500000       0.68377147       0.50360523 </v>
   <v>       0.37420221       0.68084844       0.49641434 </v>
   <v>       0.87579779       0.68084843       0.49641435 </v>
   <v>       0.01489715       0.00271422       0.49699738 </v>
   <v>       0.48883550       0.00362179       0.51237604 </v>
   <v>       0.23510284       0.00271421       0.49699739 </v>
   <v>       0.76116450       0.00362179       0.51237604 </v>
   <v>       0.00241817       0.49735596       0.50550705 </v>
   <v>       0.49969914       0.49946367       0.50824879 </v>
   <v>       0.24758183       0.49735595       0.50550706 </v>
   <v>       0.75030087       0.49946368       0.50824879 </v>
  </varray>
 </structure>
 <calculation>
  <scstep>
   <time name="dav">    5.97    6.00</time>
   <time name="total">    6.34    6.41</time>
   <energy>
    <i name="alphaZ">    192.28718434 </i>
    <i name="ewald">  12588.71851157 </i>
    <i name="hartreedc"> -22351.81814494 </i>
    <i name="XCdc">  -1817.24423366 </i>
    <i name="pawpsdc">  10481.65423230 </i>
    <i name="pawaedc">  -8188.45764070 </i>
    <i name="eentropy">     -0.03236819 </i>
    <i name="bandstr">    498.37108437 </i>
    <i name="atom">  10178.37189613 </i>
    <i name="e_fr_energy">   1581.85052122 </i>
    <i name="e_wo_entrp">   1581.88288942 </i>
    <i name="e_0_energy">   1581.86670532 </i>
   </energy>
  </scstep>
  <scstep>
   <time name="dav">    7.59    7.59</time>
   <time name="total">    7.67    7.67</time>
   <energy>
    <i name="e_fr_energy">    -75.27681963 </i>
    <i name="e_wo_entrp">    -75.26020834 </i>
    <i name="e_0_energy">    -75.26851399 </i>
   </energy>
  </scstep>
  <scstep>
   <time name="dav">    6.38    6.38</time>
   <time name="total">    6.47    6.47</time>
   <energy>
    <i name="e_fr_energy">   -277.06380803 </i>
    <i name="e_wo_entrp">   -277.06346708 </i>
    <i name="e_0_energy">   -277.06363755 </i>
   </energy>
  </scstep>
  <scstep>
   <time name="dav">    7.89    7.90</time>
   <time name="total">    7.97    7.98</time>
   <energy>
    <i name="e_fr_energy">   -288.63025741 </i>
    <i name="e_wo_entrp">   -288.63008084 </i>
    <i name="e_0_energy">   -288.63016913 </i>
   </energy>
  </scstep>
  <scstep>
   <time name="dav">    8.08    8.10</time>
   <time name="total">    8.58    8.61</time>
   <energy>
    <i name="e_fr_energy">   -288.97514147 </i>
    <i name="e_wo_entrp">   -288.97495998 </i>
    <i name="e_0_energy">   -288.97505072 </i>
   </energy>
  </scstep>
  <scstep>
   <time name="dav">    7.62    7.62</time>
   <time name="total">    8.41    8.41</time>
   <energy>
    <i name="e_fr_energy">   -281.58797811 </i>
    <i name="e_wo_entrp">   -281.57772199 </i>
    <i name="e_0_energy">   -281.58285005 </i>
   </energy>
  </scstep>
  <scstep>
   <time name="dav">    7.52    7.52</time>
   <time name="total">    8.31    8.31</time>
   <energy>
    <i name="e_fr_energy">   -283.68590752 </i>
    <i name="e_wo_entrp">   -283.67371406 </i>
    <i name="e_0_energy">   -283.67981079 </i>
   </energy>
  </scstep>
  <scstep>
   <time name="dav">    7.58    7.59</time>
   <time name="total">    8.39    8.39</time>
   <energy>
    <i name="e_fr_energy">   -277.88777537 </i>
    <i name="e_wo_entrp">   -277.88491615 </i>
    <i name="e_0_energy">   -277.88634576 </i>
   </energy>
  </scstep>
  <scstep>
   <time name="dav">    7.76    7.79</time>
   <time name="total">    8.63    8.67</time>
   <energy>
    <i name="e_fr_energy">   -277.56721640 </i>
    <i name="e_wo_entrp">   -277.56597156 </i>
    <i name="e_0_energy">   -277.56659398 </i>
   </energy>
  </scstep>
  <scstep>
   <time name="dav">    7.31    7.31</time>
   <time name="total">    8.11    8.11</time>
   <energy>
    <i name="e_fr_energy">   -277.42241420 </i>
    <i name="e_wo_entrp">   -277.41929111 </i>
    <i name="e_0_energy">   -277.42085266 </i>
   </energy>
  </scstep>
  <scstep>
   <time name="dav">    7.23    7.23</time>
   <time name="total">    8.01    8.02</time>
   <energy>
    <i name="e_fr_energy">   -277.41112078 </i>
    <i name="e_wo_entrp">   -277.40875322 </i>
    <i name="e_0_energy">   -277.40993700 </i>
   </energy>
  </scstep>
  <scstep>
   <time name="dav">    7.73    7.74</time>
   <time name="total">    8.54    8.55</time>
   <energy>
    <i name="e_fr_energy">   -277.39777611 </i>
    <i name="e_wo_entrp">   -277.39531842 </i>
    <i name="e_0_energy">   -277.39654726 </i>
   </energy>
  </scstep>
  <scstep>
   <time name="dav">    7.83    7.83</time>
   <time name="total">    8.62    8.65</time>
   <energy>
    <i name="e_fr_energy">   -277.38094715 </i>
    <i name="e_wo_entrp">   -277.37855140 </i>
    <i name="e_0_energy">   -277.37974928 </i>
   </energy>
  </scstep>
  <scstep>
   <time name="dav">    7.24    7.24</time>
   <time name="total">    8.05    8.05</time>
   <energy>
    <i name="e_fr_energy">   -277.37774015 </i>
    <i name="e_wo_entrp">   -277.37514402 </i>
    <i name="e_0_energy">   -277.37644208 </i>
   </energy>
  </scstep>
  <scstep>
   <time name="dav">    7.46    7.47</time>
   <time name="total">    8.26    8.26</time>
   <energy>
    <i name="e_fr_energy">   -277.37533300 </i>
    <i name="e_wo_entrp">   -277.37269265 </i>
    <i name="e_0_energy">   -277.37401282 </i>
   </energy>
  </scstep>
  <scstep>
   <time name="dav">    7.16    7.20</time>
   <time name="total">    7.96    8.00</time>
   <energy>
    <i name="e_fr_energy">   -277.37359986 </i>
    <i name="e_wo_entrp">   -277.37097600 </i>
    <i name="e_0_energy">   -277.37228793 </i>
   </energy>
  </scstep>
  <scstep>
   <time name="dav">    7.23    7.23</time>
   <time name="total">    8.03    8.04</time>
   <energy>
    <i name="e_fr_energy">   -277.37175678 </i>
    <i name="e_wo_entrp">   -277.36908193 </i>
    <i name="e_0_energy">   -277.37041936 </i>
   </energy>
  </scstep>
  <scstep>
   <time name="dav">    6.80    6.80</time>
   <time name="total">    7.59    7.60</time>
   <energy>
    <i name="e_fr_energy">   -277.37136885 </i>
    <i name="e_wo_entrp">   -277.36868326 </i>
    <i name="e_0_energy">   -277.37002605 </i>
   </energy>
  </scstep>
  <scstep>
   <time name="dav">    7.15    7.15</time>
   <time name="total">    7.94    7.94</time>
   <energy>
    <i name="e_fr_energy">   -277.37190473 </i>
    <i name="e_wo_entrp">   -277.36920452 </i>
    <i name="e_0_energy">   -277.37055462 </i>
   </energy>
  </scstep>
  <scstep>
   <time name="dav">    7.32    7.37</time>
   <time name="total">    8.12    8.17</time>
   <energy>
    <i name="e_fr_energy">   -277.37275511 </i>
    <i name="e_wo_entrp">   -277.37007114 </i>
    <i name="e_0_energy">   -277.37141313 </i>
   </energy>
  </scstep>
  <scstep>
   <time name="dav">    6.51    6.51</time>
   <time name="total">    7.30    7.31</time>
   <energy>
    <i name="e_fr_energy">   -277.37397189 </i>
    <i name="e_wo_entrp">   -277.37128175 </i>
    <i name="e_0_energy">   -277.37262682 </i>
   </energy>
  </scstep>
  <scstep>
   <time name="dav">    6.96    6.96</time>
   <time name="total">    7.75    7.75</time>
   <energy>
    <i name="e_fr_energy">   -277.37445121 </i>
    <i name="e_wo_entrp">   -277.37175865 </i>
    <i name="e_0_energy">   -277.37310493 </i>
   </energy>
  </scstep>
  <scstep>
   <time name="dav">    6.94    6.94</time>
   <time name="total">    7.73    7.74</time>
   <energy>
    <i name="e_fr_energy">   -277.37491076 </i>
    <i name="e_wo_entrp">   -277.37222281 </i>
    <i name="e_0_energy">   -277.37356678 </i>
   </energy>
  </scstep>
  <scstep>
   <time name="dav">    6.27    6.30</time>
   <time name="total">    7.06    7.10</time>
   <energy>
    <i name="e_fr_energy">   -277.37573513 </i>
    <i name="e_wo_entrp">   -277.37305271 </i>
    <i name="e_0_energy">   -277.37439392 </i>
   </energy>
  </scstep>
  <scstep>
   <time name="dav">    6.44    6.44</time>
   <time name="total">    7.24    7.24</time>
   <energy>
    <i name="e_fr_energy">   -277.37597114 </i>
    <i name="e_wo_entrp">   -277.37328764 </i>
    <i name="e_0_energy">   -277.37462939 </i>
   </energy>
  </scstep>
  <scstep>
   <time name="dav">    5.12    5.12</time>
   <time name="total">    5.91    5.91</time>
   <energy>
    <i name="e_fr_energy">   -277.37606788 </i>
    <i name="e_wo_entrp">   -277.37338398 </i>
    <i name="e_0_energy">   -277.37472593 </i>
   </energy>
  </scstep>
  <scstep>
   <time name="dav">    5.02    5.03</time>
   <time name="total">    5.85    5.86</time>
   <energy>
    <i name="e_fr_energy">   -277.37612656 </i>
    <i name="e_wo_entrp">   -277.37344349 </i>
    <i name="e_0_energy">   -277.37478503 </i>
   </energy>
  </scstep>
  <scstep>
   <time name="dav">    4.94    4.94</time>
   <time name="total">    5.76    5.76</time>
   <energy>
    <i name="e_fr_energy">   -277.37617556 </i>
    <i name="e_wo_entrp">   -277.37349117 </i>
    <i name="e_0_energy">   -277.37483337 </i>
   </energy>
  </scstep>
  <scstep>
   <time name="dav">    5.04    5.07</time>
   <time name="total">    5.84    5.87</time>
   <energy>
    <i name="e_fr_energy">   -277.37619497 </i>
    <i name="e_wo_entrp">   -277.37351027 </i>
    <i name="e_0_energy">   -277.37485262 </i>
   </energy>
  </scstep>
  <scstep>
   <time name="dav">    4.45    4.45</time>
   <time name="total">    5.24    5.24</time>
   <energy>
    <i name="e_fr_energy">   -277.37619853 </i>
    <i name="e_wo_entrp">   -277.37351383 </i>
    <i name="e_0_energy">   -277.37485618 </i>
   </energy>
  </scstep>
  <scstep>
   <time name="dav">    4.53    4.53</time>
   <time name="total">    5.33    5.33</time>
   <energy>
    <i name="e_fr_energy">   -277.37620048 </i>
    <i name="e_wo_entrp">   -277.37351566 </i>
    <i name="e_0_energy">   -277.37485807 </i>
   </energy>
  </scstep>
  <scstep>
   <time name="dav">    4.61    4.61</time>
   <time name="total">    5.40    5.40</time>
   <energy>
    <i name="e_fr_energy">   -277.37620227 </i>
    <i name="e_wo_entrp">   -277.37351737 </i>
    <i name="e_0_energy">   -277.37485982 </i>
   </energy>
  </scstep>
  <scstep>
   <time name="dav">    4.34    4.34</time>
   <time name="total">    4.72    4.72</time>
   <energy>
    <i name="alphaZ">    192.28718434 </i>
    <i name="ewald">  12588.71851157 </i>
    <i name="hartreedc"> -22500.29449333 </i>
    <i name="XCdc">  -1805.40499760 </i>
    <i name="pawpsdc">  20323.04013763 </i>
    <i name="pawaedc"> -18050.85592173 </i>
    <i name="eentropy">     -0.00268486 </i>
    <i name="bandstr">  -1203.23583457 </i>
    <i name="atom">  10178.37189613 </i>
    <i name="e_fr_energy">   -277.37620241 </i>
    <i name="e_wo_entrp">   -277.37351755 </i>
    <i name="e_0_energy">   -277.37485998 </i>
   </energy>
  </scstep>
  <structure>
   <crystal>
    <varray name="basis" >
     <v>      13.80799961       0.00000000       0.00000000 </v>
     <v>       0.00000000      12.73600006       0.00000000 </v>
     <v>       0.00000000       0.00000000      16.00000000 </v>
    </varray>
    <i name="volume">   2813.73894219 </i>
    <varray name="rec_basis" >
     <v>       0.07242179       0.00000000       0.00000000 </v>
     <v>       0.00000000       0.07851759       0.00000000 </v>
     <v>       0.00000000       0.00000000       0.06250000 </v>
    </varray>
   </crystal>
   <varray name="positions" >
    <v>       0.62500000       0.04711080       0.63068768 </v>
    <v>       0.35310285       0.05305354       0.62687551 </v>
    <v>       0.89689716       0.05305354       0.62687550 </v>
    <v>       0.12500001       0.55248226       0.62834861 </v>
    <v>       0.62500000       0.54769795       0.63184236 </v>
    <v>       0.37251689       0.54865522       0.63006937 </v>
    <v>       0.87748311       0.54865522       0.63006936 </v>
    <v>       0.12500000       0.37605509       0.40528699 </v>
    <v>       0.62500000       0.37273443       0.41210369 </v>
    <v>       0.37647181       0.37496356       0.40909216 </v>
    <v>       0.87352820       0.37496357       0.40909215 </v>
    <v>       0.12499999       0.87005309       0.39633040 </v>
    <v>       0.38429212       0.87699220       0.40831257 </v>
    <v>       0.86570788       0.87699220       0.40831257 </v>
    <v>       0.99810815       0.13120424       0.36377818 </v>
    <v>       0.49979290       0.12213396       0.37309457 </v>
    <v>       0.25189187       0.13120425       0.36377817 </v>
    <v>       0.75020710       0.12213397       0.37309456 </v>
    <v>       0.99709627       0.62743413       0.37023164 </v>
    <v>       0.50367557       0.63549681       0.37632349 </v>
    <v>       0.25290374       0.62743413       0.37023164 </v>
    <v>       0.74632443       0.63549681       0.37632347 </v>
    <v>       0.00651523       0.30123324       0.59265324 </v>
    <v>       0.49759078       0.30244798       0.59303177 </v>
    <v>       0.24348477       0.30123325       0.59265323 </v>
    <v>       0.75240922       0.30244797       0.59303175 </v>
    <v>       0.00847088       0.81032112       0.58831521 </v>
    <v>       0.49606610       0.80720497       0.59605485 </v>
    <v>       0.24152911       0.81032113       0.58831522 </v>
    <v>       0.75393389       0.80720497       0.59605484 </v>
    <v>       0.12499998       0.16942130       0.48853505 </v>
    <v>       0.62500000       0.17509532       0.49592956 </v>
    <v>       0.37179175       0.18052620       0.49293513 </v>
    <v>       0.87820825       0.18052619       0.49293516 </v>
    <v>       0.12500000       0.67730843       0.48998966 </v>
    <v>       0.62500000       0.68377147       0.50360523 </v>
    <v>       0.37420221       0.68084844       0.49641434 </v>
    <v>       0.87579779       0.68084843       0.49641435 </v>
    <v>       0.01489715       0.00271422       0.49699738 </v>
    <v>       0.48883550       0.00362179       0.51237604 </v>
    <v>       0.23510284       0.00271421       0.49699739 </v>
    <v>       0.76116450       0.00362179       0.51237604 </v>
    <v>       0.00241817       0.49735596       0.50550705 </v>
    <v>       0.49969914       0.49946367       0.50824879 </v>
    <v>       0.24758183       0.49735595       0.50550706 </v>
    <v>       0.75030087       0.49946368       0.50824879 </v>
   </varray>
  </structure>
  <varray name="forces" >
   <v>       0.00000202      -0.00156573       0.00266290 </v>
   <v>      -0.00079037       0.00205259       0.00104235 </v>
   <v>       0.00078662       0.00205014       0.00104682 </v>
   <v>      -0.00000112       0.00131987      -0.00437940 </v>
   <v>      -0.00000157      -0.00024317      -0.00327001 </v>
   <v>      -0.00220049       0.00080955      -0.00158028 </v>
   <v>       0.00220240       0.00080948      -0.00157568 </v>
   <v>       0.00000030       0.00278117      -0.00220785 </v>
   <v>       0.00000006      -0.00255120       0.00539177 </v>
   <v>       0.00015465      -0.00060723       0.00032791 </v>
   <v>      -0.00015492      -0.00061077       0.00032833 </v>
   <v>       0.00000141       0.00144728       0.00212802 </v>
   <v>      -0.00103683      -0.00110726      -0.00081172 </v>
   <v>       0.00103416      -0.00110840      -0.00081099 </v>
   <v>       0.00057608      -0.00220883       0.00214199 </v>
   <v>       0.00412411      -0.00222648      -0.00089206 </v>
   <v>      -0.00058107      -0.00221377       0.00215029 </v>
   <v>      -0.00412286      -0.00222732      -0.00088764 </v>
   <v>      -0.00180413       0.00020408       0.00002406 </v>
   <v>      -0.00046513      -0.00034580      -0.00382225 </v>
   <v>       0.00180167       0.00020192       0.00002734 </v>
   <v>       0.00046595      -0.00034282      -0.00382124 </v>
   <v>       0.00154464       0.00105665      -0.00019910 </v>
   <v>       0.00198689      -0.00003692       0.00076391 </v>
   <v>      -0.00154471       0.00105578      -0.00019965 </v>
   <v>      -0.00198609      -0.00003752       0.00076646 </v>
   <v>      -0.00186062      -0.00034954       0.00034757 </v>
   <v>       0.00122366      -0.00053291      -0.00064887 </v>
   <v>       0.00186039      -0.00034952       0.00034660 </v>
   <v>      -0.00122275      -0.00053118      -0.00064898 </v>
   <v>       0.00000717       0.00587329       0.00127442 </v>
   <v>       0.00000175      -0.00031095      -0.00237488 </v>
   <v>      -0.00247876       0.00266566       0.00285911 </v>
   <v>       0.00247402       0.00266963       0.00284893 </v>
   <v>       0.00000169       0.00097213      -0.00050429 </v>
   <v>       0.00000100       0.00049680       0.00098795 </v>
   <v>      -0.00132631       0.00006219       0.00008909 </v>
   <v>       0.00132585       0.00006740       0.00008322 </v>
   <v>      -0.00072708      -0.00102999      -0.00388734 </v>
   <v>      -0.00019237       0.00059392       0.00195267 </v>
   <v>       0.00072776      -0.00102061      -0.00389538 </v>
   <v>       0.00019234       0.00059335       0.00195320 </v>
   <v>       0.00013697      -0.00080753       0.00287312 </v>
   <v>       0.00146421      -0.00230605      -0.00043340 </v>
   <v>      -0.00013393      -0.00080497       0.00286730 </v>
   <v>      -0.00146668      -0.00230640      -0.00043433 </v>
  </varray>
  <varray name="stress" >
   <v>      -7.50324905       0.00000803      -0.00000002 </v>
   <v>       0.00000797      -3.77409013       0.01920970 </v>
   <v>       0.00000012       0.01920991      -0.13883536 </v>
  </varray>
  <energy>
   <i name="e_fr_energy">   -277.37620241 </i>
   <i name="e_wo_entrp">   -277.37485998 </i>
   <i name="e_0_energy">     -0.00268486 </i>
  </energy>
  <scstep>
   <time name="total">   10.87   10.90</time>
   <energy>
    <i name="e_fr_energy">   -112.49089230 </i>
    <i name="e_wo_entrp">   -112.49089230 </i>
    <i name="e_0_energy">   -112.49089230 </i>
   </energy>
  </scstep>
  <scstep>
   <time name="total">    9.44    9.45</time>
   <energy>
    <i name="e_fr_energy">   -109.25548345 </i>
    <i name="e_wo_entrp">   -109.25548346 </i>
    <i name="e_0_energy">   -109.25548345 </i>
   </energy>
  </scstep>
  <scstep>
   <time name="total">    9.25    9.25</time>
   <energy>
    <i name="e_fr_energy">   -109.54395695 </i>
    <i name="e_wo_entrp">   -109.54395388 </i>
    <i name="e_0_energy">   -109.54395541 </i>
   </energy>
  </scstep>
  <scstep>
   <time name="total">    9.04    9.05</time>
   <energy>
    <i name="e_fr_energy">   -109.05181219 </i>
    <i name="e_wo_entrp">   -109.05181456 </i>
    <i name="e_0_energy">   -109.05181337 </i>
   </energy>
  </scstep>
  <scstep>
   <time name="total">    9.62    9.67</time>
   <energy>
    <i name="e_fr_energy">   -108.86486902 </i>
    <i name="e_wo_entrp">   -108.86485350 </i>
    <i name="e_0_energy">   -108.86486126 </i>
   </energy>
  </scstep>
  <scstep>
   <time name="total">    9.40    9.40</time>
   <energy>
    <i name="e_fr_energy">   -108.83285855 </i>
    <i name="e_wo_entrp">   -108.83286660 </i>
    <i name="e_0_energy">   -108.83286257 </i>
   </energy>
  </scstep>
  <scstep>
   <time name="total">    9.53    9.53</time>
   <energy>
    <i name="e_fr_energy">   -108.85331615 </i>
    <i name="e_wo_entrp">   -108.85331214 </i>
    <i name="e_0_energy">   -108.85331414 </i>
   </energy>
  </scstep>
  <scstep>
   <time name="total">    9.57    9.61</time>
   <energy>
    <i name="e_fr_energy">   -108.86279733 </i>
    <i name="e_wo_entrp">   -108.86280441 </i>
    <i name="e_0_energy">   -108.86280087 </i>
   </energy>
  </scstep>
  <scstep>
   <time name="total">    9.54    9.55</time>
   <energy>
    <i name="e_fr_energy">   -108.87332754 </i>
    <i name="e_wo_entrp">   -108.87332275 </i>
    <i name="e_0_energy">   -108.87332514 </i>
   </energy>
  </scstep>
  <scstep>
   <time name="total">    9.73    9.73</time>
   <energy>
    <i name="e_fr_energy">   -108.87366729 </i>
    <i name="e_wo_entrp">   -108.87367778 </i>
    <i name="e_0_energy">   -108.87367254 </i>
   </energy>
  </scstep>
  <scstep>
   <time name="total">   10.77   10.78</time>
   <energy>
    <i name="e_fr_energy">   -110.92433045 </i>
    <i name="e_wo_entrp">   -110.92420010 </i>
    <i name="e_0_energy">   -110.92426527 </i>
   </energy>
  </scstep>
  <scstep>
   <time name="total">    9.20    9.20</time>
   <energy>
    <i name="e_fr_energy">   -108.33685176 </i>
    <i name="e_wo_entrp">   -108.33672142 </i>
    <i name="e_0_energy">   -108.33678659 </i>
   </energy>
  </scstep>
  <scstep>
   <time name="total">    9.22    9.26</time>
   <energy>
    <i name="e_fr_energy">   -108.41777748 </i>
    <i name="e_wo_entrp">   -108.41591273 </i>
    <i name="e_0_energy">   -108.41684511 </i>
   </energy>
  </scstep>
  <scstep>
   <time name="total">    9.32    9.33</time>
   <energy>
    <i name="e_fr_energy">   -108.14573463 </i>
    <i name="e_wo_entrp">   -108.14560295 </i>
    <i name="e_0_energy">   -108.14566879 </i>
   </energy>
  </scstep>
  <scstep>
   <time name="total">    9.59    9.59</time>
   <energy>
    <i name="e_fr_energy">   -108.00929211 </i>
    <i name="e_wo_entrp">   -108.00814516 </i>
    <i name="e_0_energy">   -108.00871864 </i>
   </energy>
  </scstep>
  <scstep>
   <time name="total">    9.36    9.40</time>
   <energy>
    <i name="e_fr_energy">   -107.95030990 </i>
    <i name="e_wo_entrp">   -107.95023608 </i>
    <i name="e_0_energy">   -107.95027299 </i>
   </energy>
  </scstep>
  <scstep>
   <time name="total">    9.72    9.72</time>
   <energy>
    <i name="e_fr_energy">   -107.97863150 </i>
    <i name="e_wo_entrp">   -107.97832718 </i>
    <i name="e_0_energy">   -107.97847934 </i>
   </energy>
  </scstep>
  <scstep>
   <time name="total">    9.57    9.58</time>
   <energy>
    <i name="e_fr_energy">   -107.98834943 </i>
    <i name="e_wo_entrp">   -107.98812364 </i>
    <i name="e_0_energy">   -107.98823654 </i>
   </energy>
  </scstep>
  <scstep>
   <time name="total">    9.52    9.56</time>
   <energy>
    <i name="e_fr_energy">   -108.00477740 </i>
    <i name="e_wo_entrp">   -108.00448485 </i>
    <i name="e_0_energy">   -108.00463112 </i>
   </energy>
  </scstep>
  <scstep>
   <time name="total">    9.58    9.58</time>
   <energy>
    <i name="e_fr_energy">   -108.00960956 </i>
    <i name="e_wo_entrp">   -108.00934756 </i>
    <i name="e_0_energy">   -108.00947856 </i>
   </energy>
  </scstep>
  <scstep>
   <time name="total">    9.58    9.59</time>
   <energy>
    <i name="e_fr_energy">   -108.01119316 </i>
    <i name="e_wo_entrp">   -108.01092123 </i>
    <i name="e_0_energy">   -108.01105720 </i>
   </energy>
  </scstep>
  <scstep>
   <time name="total">   11.02   11.03</time>
   <energy>
    <i name="e_fr_energy">   -116.30785391 </i>
    <i name="e_wo_entrp">   -116.30848927 </i>
    <i name="e_0_energy">   -116.30817159 </i>
   </energy>
  </scstep>
  <scstep>
   <time name="total">    9.41    9.45</time>
   <energy>
    <i name="e_fr_energy">   -110.82360874 </i>
    <i name="e_wo_entrp">   -110.82424411 </i>
    <i name="e_0_energy">   -110.82392642 </i>
   </energy>
  </scstep>
  <scstep>
   <time name="total">    9.40    9.41</time>
   <energy>
    <i name="e_fr_energy">   -111.23640496 </i>
    <i name="e_wo_entrp">   -111.23466040 </i>
    <i name="e_0_energy">   -111.23553268 </i>
   </energy>
  </scstep>
  <scstep>
   <time name="total">    9.15    9.16</time>
   <energy>
    <i name="e_fr_energy">   -110.47545589 </i>
    <i name="e_wo_entrp">   -110.47625476 </i>
    <i name="e_0_energy">   -110.47585532 </i>
   </energy>
  </scstep>
  <scstep>
   <time name="total">    9.37    9.38</time>
   <energy>
    <i name="e_fr_energy">   -110.42115637 </i>
    <i name="e_wo_entrp">   -110.42086392 </i>
    <i name="e_0_energy">   -110.42101014 </i>
   </energy>
  </scstep>
  <scstep>
   <time name="total">    9.30    9.35</time>
   <energy>
    <i name="e_fr_energy">   -110.15895141 </i>
    <i name="e_wo_entrp">   -110.16033274 </i>
    <i name="e_0_energy">   -110.15964207 </i>
   </energy>
  </scstep>
  <scstep>
   <time name="total">    9.55    9.56</time>
   <energy>
    <i name="e_fr_energy">   -110.16579656 </i>
    <i name="e_wo_entrp">   -110.16651531 </i>
    <i name="e_0_energy">   -110.16615593 </i>
   </energy>
  </scstep>
  <scstep>
   <time name="total">    9.60    9.61</time>
   <energy>
    <i name="e_fr_energy">   -110.17521619 </i>
    <i name="e_wo_entrp">   -110.17613904 </i>
    <i name="e_0_energy">   -110.17567762 </i>
   </energy>
  </scstep>
  <scstep>
   <time name="total">    9.59    9.63</time>
   <energy>
    <i name="e_fr_energy">   -110.17848831 </i>
    <i name="e_wo_entrp">   -110.17914210 </i>
    <i name="e_0_energy">   -110.17881521 </i>
   </energy>
  </scstep>
  <scstep>
   <time name="total">    9.48    9.49</time>
   <energy>
    <i name="e_fr_energy">   -110.17376908 </i>
    <i name="e_wo_entrp">   -110.17457692 </i>
    <i name="e_0_energy">   -110.17417300 </i>
   </energy>
  </scstep>
  <scstep>
   <time name="total">    9.56    9.56</time>
   <energy>
    <i name="e_fr_energy">   -110.17219111 </i>
    <i name="e_wo_entrp">   -110.17295717 </i>
    <i name="e_0_energy">   -110.17257414 </i>
   </energy>
  </scstep>
  <scstep>
   <time name="total">   10.91   10.92</time>
   <energy>
    <i name="e_fr_energy">   -111.84613184 </i>
    <i name="e_wo_entrp">   -111.84817894 </i>
    <i name="e_0_energy">   -111.84715539 </i>
   </energy>
  </scstep>
  <scstep>
   <time name="total">    9.26    9.30</time>
   <energy>
    <i name="e_fr_energy">   -108.90952235 </i>
    <i name="e_wo_entrp">   -108.91156945 </i>
    <i name="e_0_energy">   -108.91054590 </i>
   </energy>
  </scstep>
  <scstep>
   <time name="total">    9.39    9.39</time>
   <energy>
    <i name="e_fr_energy">   -109.17881859 </i>
    <i name="e_wo_entrp">   -109.18240941 </i>
    <i name="e_0_energy">   -109.18061400 </i>
   </energy>
  </scstep>
  <scstep>
   <time name="total">    9.13    9.13</time>
   <energy>
    <i name="e_fr_energy">   -108.71410477 </i>
    <i name="e_wo_entrp">   -108.71614542 </i>
    <i name="e_0_energy">   -108.71512510 </i>
   </energy>
  </scstep>
  <scstep>
   <time name="total">    9.55    9.60</time>
   <energy>
    <i name="e_fr_energy">   -108.59625950 </i>
    <i name="e_wo_entrp">   -108.59933350 </i>
    <i name="e_0_energy">   -108.59779650 </i>
   </energy>
  </scstep>
  <scstep>
   <time name="total">    9.22    9.22</time>
   <energy>
    <i name="e_fr_energy">   -108.53382460 </i>
    <i name="e_wo_entrp">   -108.53560174 </i>
    <i name="e_0_energy">   -108.53471317 </i>
   </energy>
  </scstep>
  <scstep>
   <time name="total">    9.62    9.62</time>
   <energy>
    <i name="e_fr_energy">   -108.55596430 </i>
    <i name="e_wo_entrp">   -108.55812319 </i>
    <i name="e_0_energy">   -108.55704374 </i>
   </energy>
  </scstep>
  <scstep>
   <time name="total">    9.62    9.63</time>
   <energy>
    <i name="e_fr_energy">   -108.56580434 </i>
    <i name="e_wo_entrp">   -108.56786207 </i>
    <i name="e_0_energy">   -108.56683320 </i>
   </energy>
  </scstep>
  <scstep>
   <time name="total">    9.62    9.65</time>
   <energy>
    <i name="e_fr_energy">   -108.58031495 </i>
    <i name="e_wo_entrp">   -108.58245064 </i>
    <i name="e_0_energy">   -108.58138279 </i>
   </energy>
  </scstep>
  <scstep>
   <time name="total">    9.58    9.58</time>
   <energy>
    <i name="e_fr_energy">   -108.58536446 </i>
    <i name="e_wo_entrp">   -108.58747059 </i>
    <i name="e_0_energy">   -108.58641753 </i>
   </energy>
  </scstep>
  <scstep>
   <time name="total">    9.64    9.65</time>
   <energy>
    <i name="e_fr_energy">   -108.58594838 </i>
    <i name="e_wo_entrp">   -108.58807491 </i>
    <i name="e_0_energy">   -108.58701165 </i>
   </energy>
  </scstep>
  <scstep>
   <time name="total">   10.80   10.81</time>
   <energy>
    <i name="e_fr_energy">   -111.47434330 </i>
    <i name="e_wo_entrp">   -111.47710226 </i>
    <i name="e_0_energy">   -111.47572278 </i>
   </energy>
  </scstep>
  <scstep>
   <time name="total">    9.26    9.37</time>
   <energy>
    <i name="e_fr_energy">   -108.36657540 </i>
    <i name="e_wo_entrp">   -108.36933437 </i>
    <i name="e_0_energy">   -108.36795489 </i>
   </energy>
  </scstep>
  <scstep>
   <time name="total">    9.48    9.48</time>
   <energy>
    <i name="e_fr_energy">   -108.52304218 </i>
    <i name="e_wo_entrp">   -108.52474578 </i>
    <i name="e_0_energy">   -108.52389398 </i>
   </energy>
  </scstep>
  <scstep>
   <time name="total">    9.15    9.16</time>
   <energy>
    <i name="e_fr_energy">   -108.27595692 </i>
    <i name="e_wo_entrp">   -108.27853230 </i>
    <i name="e_0_energy">   -108.27724461 </i>
   </energy>
  </scstep>
  <scstep>
   <time name="total">    9.34    9.44</time>
   <energy>
    <i name="e_fr_energy">   -108.21678403 </i>
    <i name="e_wo_entrp">   -108.21856909 </i>
    <i name="e_0_energy">   -108.21767656 </i>
   </energy>
  </scstep>
  <scstep>
   <time name="total">    9.29    9.29</time>
   <energy>
    <i name="e_fr_energy">   -108.15392191 </i>
    <i name="e_wo_entrp">   -108.15643596 </i>
    <i name="e_0_energy">   -108.15517894 </i>
   </energy>
  </scstep>
  <scstep>
   <time name="total">    9.68    9.68</time>
   <energy>
    <i name="e_fr_energy">   -108.17531691 </i>
    <i name="e_wo_entrp">   -108.17761254 </i>
    <i name="e_0_energy">   -108.17646472 </i>
   </energy>
  </scstep>
  <scstep>
   <time name="total">    9.49    9.58</time>
   <energy>
    <i name="e_fr_energy">   -108.18209891 </i>
    <i name="e_wo_entrp">   -108.18454030 </i>
    <i name="e_0_energy">   -108.18331961 </i>
   </energy>
  </scstep>
  <scstep>
   <time name="total">    9.60    9.63</time>
   <energy>
    <i name="e_fr_energy">   -108.19369974 </i>
    <i name="e_wo_entrp">   -108.19606611 </i>
    <i name="e_0_energy">   -108.19488293 </i>
   </energy>
  </scstep>
  <scstep>
   <time name="total">    9.54    9.55</time>
   <energy>
    <i name="e_fr_energy">   -108.19705124 </i>
    <i name="e_wo_entrp">   -108.19946159 </i>
    <i name="e_0_energy">   -108.19825642 </i>
   </energy>
  </scstep>
  <scstep>
   <time name="total">    9.62    9.63</time>
   <energy>
    <i name="e_fr_energy">   -108.19810891 </i>
    <i name="e_wo_entrp">   -108.20050384 </i>
    <i name="e_0_energy">   -108.19930637 </i>
   </energy>
  </scstep>
  <scstep>
   <time name="total">   11.15   11.15</time>
   <energy>
    <i name="e_fr_energy">   -116.55444999 </i>
    <i name="e_wo_entrp">   -116.55560735 </i>
    <i name="e_0_energy">   -116.55502867 </i>
   </energy>
  </scstep>
  <scstep>
   <time name="total">    9.64    9.68</time>
   <energy>
    <i name="e_fr_energy">   -110.73270393 </i>
    <i name="e_wo_entrp">   -110.73386129 </i>
    <i name="e_0_energy">   -110.73328261 </i>
   </energy>
  </scstep>
  <scstep>
   <time name="total">    9.41    9.41</time>
   <energy>
    <i name="e_fr_energy">   -111.11847144 </i>
    <i name="e_wo_entrp">   -111.11809440 </i>
    <i name="e_0_energy">   -111.11828292 </i>
   </energy>
  </scstep>
  <scstep>
   <time name="total">    9.08    9.08</time>
   <energy>
    <i name="e_fr_energy">   -110.26806787 </i>
    <i name="e_wo_entrp">   -110.26869095 </i>
    <i name="e_0_energy">   -110.26837941 </i>
   </energy>
  </scstep>
  <scstep>
   <time name="total">    9.26    9.30</time>
   <energy>
    <i name="e_fr_energy">   -110.18268128 </i>
    <i name="e_wo_entrp">   -110.18323232 </i>
    <i name="e_0_energy">   -110.18295680 </i>
   </energy>
  </scstep>
  <scstep>
   <time name="total">    9.22    9.22</time>
   <energy>
    <i name="e_fr_energy">   -109.94476943 </i>
    <i name="e_wo_entrp">   -109.94547585 </i>
    <i name="e_0_energy">   -109.94512264 </i>
   </energy>
  </scstep>
  <scstep>
   <time name="total">    9.60    9.61</time>
   <energy>
    <i name="e_fr_energy">   -109.95532445 </i>
    <i name="e_wo_entrp">   -109.95577313 </i>
    <i name="e_0_energy">   -109.95554879 </i>
   </energy>
  </scstep>
  <scstep>
   <time name="total">    9.61    9.66</time>
   <energy>
    <i name="e_fr_energy">   -109.96704720 </i>
    <i name="e_wo_entrp">   -109.96761685 </i>
    <i name="e_0_energy">   -109.96733202 </i>
   </energy>
  </scstep>
  <scstep>
   <time name="total">    9.45    9.46</time>
   <energy>
    <i name="e_fr_energy">   -109.97606375 </i>
    <i name="e_wo_entrp">   -109.97648618 </i>
    <i name="e_0_energy">   -109.97627497 </i>
   </energy>
  </scstep>
  <scstep>
   <time name="total">    9.42    9.43</time>
   <energy>
    <i name="e_fr_energy">   -109.97428196 </i>
    <i name="e_wo_entrp">   -109.97486910 </i>
    <i name="e_0_energy">   -109.97457553 </i>
   </energy>
  </scstep>
  <scstep>
   <time name="total">   11.02   11.03</time>
   <energy>
    <i name="e_fr_energy">   -111.85022715 </i>
    <i name="e_wo_entrp">   -111.84818006 </i>
    <i name="e_0_energy">   -111.84920360 </i>
   </energy>
  </scstep>
  <scstep>
   <time name="total">    9.39    9.40</time>
   <energy>
    <i name="e_fr_energy">   -108.91167519 </i>
    <i name="e_wo_entrp">   -108.90962810 </i>
    <i name="e_0_energy">   -108.91065164 </i>
   </energy>
  </scstep>
  <scstep>
   <time name="total">    9.33    9.37</time>
   <energy>
    <i name="e_fr_energy">   -109.18403158 </i>
    <i name="e_wo_entrp">   -109.18044255 </i>
    <i name="e_0_energy">   -109.18223706 </i>
   </energy>
  </scstep>
  <scstep>
   <time name="total">    9.21    9.22</time>
   <energy>
    <i name="e_fr_energy">   -108.71874216 </i>
    <i name="e_wo_entrp">   -108.71670150 </i>
    <i name="e_0_energy">   -108.71772183 </i>
   </energy>
  </scstep>
  <scstep>
   <time name="total">    9.47    9.48</time>
   <energy>
    <i name="e_fr_energy">   -108.60273538 </i>
    <i name="e_wo_entrp">   -108.59965988 </i>
    <i name="e_0_energy">   -108.60119763 </i>
   </energy>
  </scstep>
  <scstep>
   <time name="total">    9.14    9.18</time>
   <energy>
    <i name="e_fr_energy">   -108.53774099 </i>
    <i name="e_wo_entrp">   -108.53596412 </i>
    <i name="e_0_energy">   -108.53685256 </i>
   </energy>
  </scstep>
  <scstep>
   <time name="total">    9.68    9.69</time>
   <energy>
    <i name="e_fr_energy">   -108.56052027 </i>
    <i name="e_wo_entrp">   -108.55836137 </i>
    <i name="e_0_energy">   -108.55944082 </i>
   </energy>
  </scstep>
  <scstep>
   <time name="total">    9.57    9.58</time>
   <energy>
    <i name="e_fr_energy">   -108.57005668 </i>
    <i name="e_wo_entrp">   -108.56799889 </i>
    <i name="e_0_energy">   -108.56902779 </i>
   </energy>
  </scstep>
  <scstep>
   <time name="total">    9.48    9.51</time>
   <energy>
    <i name="e_fr_energy">   -108.58471051 </i>
    <i name="e_wo_entrp">   -108.58257472 </i>
    <i name="e_0_energy">   -108.58364261 </i>
   </energy>
  </scstep>
  <scstep>
   <time name="total">    9.54    9.55</time>
   <energy>
    <i name="e_fr_energy">   -108.58962364 </i>
    <i name="e_wo_entrp">   -108.58751759 </i>
    <i name="e_0_energy">   -108.58857061 </i>
   </energy>
  </scstep>
  <scstep>
   <time name="total">    9.66    9.66</time>
   <energy>
    <i name="e_fr_energy">   -108.59026195 </i>
    <i name="e_wo_entrp">   -108.58813561 </i>
    <i name="e_0_energy">   -108.58919878 </i>
   </energy>
  </scstep>
  <scstep>
   <time name="total">   10.83   10.83</time>
   <energy>
    <i name="e_fr_energy">   -111.47434520 </i>
    <i name="e_wo_entrp">   -111.47710416 </i>
    <i name="e_0_energy">   -111.47572468 </i>
   </energy>
  </scstep>
  <scstep>
   <time name="total">    9.31    9.31</time>
   <energy>
    <i name="e_fr_energy">   -108.36755063 </i>
    <i name="e_wo_entrp">   -108.37030959 </i>
    <i name="e_0_energy">   -108.36893011 </i>
   </energy>
  </scstep>
  <scstep>
   <time name="total">    9.45    9.48</time>
   <energy>
    <i name="e_fr_energy">   -108.52339063 </i>
    <i name="e_wo_entrp">   -108.52508894 </i>
    <i name="e_0_energy">   -108.52423978 </i>
   </energy>
  </scstep>
  <scstep>
   <time name="total">    9.26    9.26</time>
   <energy>
    <i name="e_fr_energy">   -108.27539397 </i>
    <i name="e_wo_entrp">   -108.27796776 </i>
    <i name="e_0_energy">   -108.27668087 </i>
   </energy>
  </scstep>
  <scstep>
   <time name="total">    9.52    9.52</time>
   <energy>
    <i name="e_fr_energy">   -108.21592547 </i>
    <i name="e_wo_entrp">   -108.21771132 </i>
    <i name="e_0_energy">   -108.21681839 </i>
   </energy>
  </scstep>
  <scstep>
   <time name="total">    9.34    9.38</time>
   <energy>
    <i name="e_fr_energy">   -108.15367813 </i>
    <i name="e_wo_entrp">   -108.15619416 </i>
    <i name="e_0_energy">   -108.15493615 </i>
   </energy>
  </scstep>
  <scstep>
   <time name="total">    9.77    9.77</time>
   <energy>
    <i name="e_fr_energy">   -108.17509191 </i>
    <i name="e_wo_entrp">   -108.17738707 </i>
    <i name="e_0_energy">   -108.17623949 </i>
   </energy>
  </scstep>
  <scstep>
   <time name="total">    9.53    9.53</time>
   <energy>
    <i name="e_fr_energy">   -108.18190476 </i>
    <i name="e_wo_entrp">   -108.18434607 </i>
    <i name="e_0_energy">   -108.18312542 </i>
   </energy>
  </scstep>
  <scstep>
   <time name="total">    9.50    9.54</time>
   <energy>
    <i name="e_fr_energy">   -108.19363600 </i>
    <i name="e_wo_entrp">   -108.19600232 </i>
    <i name="e_0_energy">   -108.19481916 </i>
   </energy>
  </scstep>
  <scstep>
   <time name="total">    9.65    9.65</time>
   <energy>
    <i name="e_fr_energy">   -108.19700979 </i>
    <i name="e_wo_entrp">   -108.19941975 </i>
    <i name="e_0_energy">   -108.19821477 </i>
   </energy>
  </scstep>
  <scstep>
   <time name="total">    9.75    9.98</time>
   <energy>
    <i name="e_fr_energy">   -108.19803801 </i>
    <i name="e_wo_entrp">   -108.20043280 </i>
    <i name="e_0_energy">   -108.19923540 </i>
   </energy>
  </scstep>
  <scstep>
   <time name="total">   11.23   11.23</time>
   <energy>
    <i name="e_fr_energy">   -116.55445451 </i>
    <i name="e_wo_entrp">   -116.55561188 </i>
    <i name="e_0_energy">   -116.55503320 </i>
   </energy>
  </scstep>
  <scstep>
   <time name="total">    9.50    9.55</time>
   <energy>
    <i name="e_fr_energy">   -110.73373748 </i>
    <i name="e_wo_entrp">   -110.73489485 </i>
    <i name="e_0_energy">   -110.73431617 </i>
   </energy>
  </scstep>
  <scstep>
   <time name="total">    9.33    9.34</time>
   <energy>
    <i name="e_fr_energy">   -111.11465596 </i>
    <i name="e_wo_entrp">   -111.11428476 </i>
    <i name="e_0_energy">   -111.11447036 </i>
   </energy>
  </scstep>
  <scstep>
   <time name="total">    9.13    9.14</time>
   <energy>
    <i name="e_fr_energy">   -110.26799690 </i>
    <i name="e_wo_entrp">   -110.26861759 </i>
    <i name="e_0_energy">   -110.26830725 </i>
   </energy>
  </scstep>
  <scstep>
   <time name="total">    9.35    9.36</time>
   <energy>
    <i name="e_fr_energy">   -110.18104877 </i>
    <i name="e_wo_entrp">   -110.18161554 </i>
    <i name="e_0_energy">   -110.18133215 </i>
   </energy>
  </scstep>
  <scstep>
   <time name="total">    9.35    9.39</time>
   <energy>
    <i name="e_fr_energy">   -109.94498472 </i>
    <i name="e_wo_entrp">   -109.94568585 </i>
    <i name="e_0_energy">   -109.94533528 </i>
   </energy>
  </scstep>
  <scstep>
   <time name="total">    9.62    9.62</time>
   <energy>
    <i name="e_fr_energy">   -109.95542684 </i>
    <i name="e_wo_entrp">   -109.95587844 </i>
    <i name="e_0_energy">   -109.95565264 </i>
   </energy>
  </scstep>
  <scstep>
   <time name="total">    9.54    9.55</time>
   <energy>
    <i name="e_fr_energy">   -109.96714075 </i>
    <i name="e_wo_entrp">   -109.96770793 </i>
    <i name="e_0_energy">   -109.96742434 </i>
   </energy>
  </scstep>
  <scstep>
   <time name="total">    9.42    9.46</time>
   <energy>
    <i name="e_fr_energy">   -109.97606906 </i>
    <i name="e_wo_entrp">   -109.97649595 </i>
    <i name="e_0_energy">   -109.97628251 </i>
   </energy>
  </scstep>
  <scstep>
   <time name="total">    9.58    9.58</time>
   <energy>
    <i name="e_fr_energy">   -109.97426698 </i>
    <i name="e_wo_entrp">   -109.97485242 </i>
    <i name="e_0_energy">   -109.97455970 </i>
   </energy>
  </scstep>
  <scstep>
   <time name="total">   10.88   10.88</time>
   <energy>
    <i name="e_fr_energy">   -113.28862383 </i>
    <i name="e_wo_entrp">   -113.28862382 </i>
    <i name="e_0_energy">   -113.28862383 </i>
   </energy>
  </scstep>
  <scstep>
   <time name="total">    9.27    9.28</time>
   <energy>
    <i name="e_fr_energy">   -107.83155309 </i>
    <i name="e_wo_entrp">   -107.83155308 </i>
    <i name="e_0_energy">   -107.83155309 </i>
   </energy>
  </scstep>
  <scstep>
   <time name="total">    9.34    9.35</time>
   <energy>
    <i name="e_fr_energy">   -107.99979003 </i>
    <i name="e_wo_entrp">   -107.99979312 </i>
    <i name="e_0_energy">   -107.99979157 </i>
   </energy>
  </scstep>
  <scstep>
   <time name="total">    9.20    9.25</time>
   <energy>
    <i name="e_fr_energy">   -107.75387142 </i>
    <i name="e_wo_entrp">   -107.75387168 </i>
    <i name="e_0_energy">   -107.75387155 </i>
   </energy>
  </scstep>
  <scstep>
   <time name="total">    9.60    9.61</time>
   <energy>
    <i name="e_fr_energy">   -107.60183365 </i>
    <i name="e_wo_entrp">   -107.60183838 </i>
    <i name="e_0_energy">   -107.60183602 </i>
   </energy>
  </scstep>
  <scstep>
   <time name="total">    9.42    9.43</time>
   <energy>
    <i name="e_fr_energy">   -107.61363192 </i>
    <i name="e_wo_entrp">   -107.61362540 </i>
    <i name="e_0_energy">   -107.61362866 </i>
   </energy>
  </scstep>
  <scstep>
   <time name="total">    9.57    9.62</time>
   <energy>
    <i name="e_fr_energy">   -107.62211292 </i>
    <i name="e_wo_entrp">   -107.62211477 </i>
    <i name="e_0_energy">   -107.62211385 </i>
   </energy>
  </scstep>
  <scstep>
   <time name="total">    9.73    9.73</time>
   <energy>
    <i name="e_fr_energy">   -107.63221880 </i>
    <i name="e_wo_entrp">   -107.63221438 </i>
    <i name="e_0_energy">   -107.63221659 </i>
   </energy>
  </scstep>
  <scstep>
   <time name="total">    9.58    9.59</time>
   <energy>
    <i name="e_fr_energy">   -107.63868013 </i>
    <i name="e_wo_entrp">   -107.63868203 </i>
    <i name="e_0_energy">   -107.63868108 </i>
   </energy>
  </scstep>
  <scstep>
   <time name="total">    9.80    9.85</time>
   <energy>
    <i name="e_fr_energy">   -107.63781560 </i>
    <i name="e_wo_entrp">   -107.63781429 </i>
    <i name="e_0_energy">   -107.63781495 </i>
   </energy>
  </scstep>
  <scstep>
   <time name="total">   10.88   10.92</time>
   <energy>
    <i name="e_fr_energy">   -111.75535880 </i>
    <i name="e_wo_entrp">   -111.75475746 </i>
    <i name="e_0_energy">   -111.75505813 </i>
   </energy>
  </scstep>
  <scstep>
   <time name="total">    9.39    9.39</time>
   <energy>
    <i name="e_fr_energy">   -108.34677702 </i>
    <i name="e_wo_entrp">   -108.34617568 </i>
    <i name="e_0_energy">   -108.34647635 </i>
   </energy>
  </scstep>
  <scstep>
   <time name="total">    9.45    9.45</time>
   <energy>
    <i name="e_fr_energy">   -108.50377847 </i>
    <i name="e_wo_entrp">   -108.50135663 </i>
    <i name="e_0_energy">   -108.50256755 </i>
   </energy>
  </scstep>
  <scstep>
   <time name="total">    9.17    9.21</time>
   <energy>
    <i name="e_fr_energy">   -108.30763575 </i>
    <i name="e_wo_entrp">   -108.30636276 </i>
    <i name="e_0_energy">   -108.30699925 </i>
   </energy>
  </scstep>
  <scstep>
   <time name="total">    9.58    9.58</time>
   <energy>
    <i name="e_fr_energy">   -108.21038115 </i>
    <i name="e_wo_entrp">   -108.20901951 </i>
    <i name="e_0_energy">   -108.20970033 </i>
   </energy>
  </scstep>
  <scstep>
   <time name="total">    9.35    9.36</time>
   <energy>
    <i name="e_fr_energy">   -108.21200892 </i>
    <i name="e_wo_entrp">   -108.21096977 </i>
    <i name="e_0_energy">   -108.21148935 </i>
   </energy>
  </scstep>
  <scstep>
   <time name="total">    9.49    9.49</time>
   <energy>
    <i name="e_fr_energy">   -108.22534130 </i>
    <i name="e_wo_entrp">   -108.22392472 </i>
    <i name="e_0_energy">   -108.22463301 </i>
   </energy>
  </scstep>
  <scstep>
   <time name="total">    9.63    9.68</time>
   <energy>
    <i name="e_fr_energy">   -108.23272469 </i>
    <i name="e_wo_entrp">   -108.23149150 </i>
    <i name="e_0_energy">   -108.23210810 </i>
   </energy>
  </scstep>
  <scstep>
   <time name="total">    9.59    9.60</time>
   <energy>
    <i name="e_fr_energy">   -108.24668135 </i>
    <i name="e_wo_entrp">   -108.24534963 </i>
    <i name="e_0_energy">   -108.24601549 </i>
   </energy>
  </scstep>
  <scstep>
   <time name="total">    9.78    9.79</time>
   <energy>
    <i name="e_fr_energy">   -108.24723619 </i>
    <i name="e_wo_entrp">   -108.24592370 </i>
    <i name="e_0_energy">   -108.24657995 </i>
   </energy>
  </scstep>
  <scstep>
   <time name="total">   11.18   11.18</time>
   <energy>
    <i name="e_fr_energy">   -117.36808730 </i>
    <i name="e_wo_entrp">   -117.36570744 </i>
    <i name="e_0_energy">   -117.36689737 </i>
   </energy>
  </scstep>
  <scstep>
   <time name="total">    9.66    9.70</time>
   <energy>
    <i name="e_fr_energy">   -110.99349340 </i>
    <i name="e_wo_entrp">   -110.99111355 </i>
    <i name="e_0_energy">   -110.99230347 </i>
   </energy>
  </scstep>
  <scstep>
   <time name="total">    9.36    9.37</time>
   <energy>
    <i name="e_fr_energy">   -111.22880745 </i>
    <i name="e_wo_entrp">   -111.22958781 </i>
    <i name="e_0_energy">   -111.22919763 </i>
   </energy>
  </scstep>
  <scstep>
   <time name="total">    9.12    9.13</time>
   <energy>
    <i name="e_fr_energy">   -110.68953081 </i>
    <i name="e_wo_entrp">   -110.68767420 </i>
    <i name="e_0_energy">   -110.68860251 </i>
   </energy>
  </scstep>
  <scstep>
   <time name="total">    9.45    9.49</time>
   <energy>
    <i name="e_fr_energy">   -110.52300612 </i>
    <i name="e_wo_entrp">   -110.52208457 </i>
    <i name="e_0_energy">   -110.52254534 </i>
   </energy>
  </scstep>
  <scstep>
   <time name="total">    9.40    9.41</time>
   <energy>
    <i name="e_fr_energy">   -110.43417686 </i>
    <i name="e_wo_entrp">   -110.43251141 </i>
    <i name="e_0_energy">   -110.43334413 </i>
   </energy>
  </scstep>
  <scstep>
   <time name="total">    9.55    9.56</time>
   <energy>
    <i name="e_fr_energy">   -110.43436929 </i>
    <i name="e_wo_entrp">   -110.43299106 </i>
    <i name="e_0_energy">   -110.43368017 </i>
   </energy>
  </scstep>
  <scstep>
   <time name="total">    9.57    9.60</time>
   <energy>
    <i name="e_fr_energy">   -110.43783869 </i>
    <i name="e_wo_entrp">   -110.43626896 </i>
    <i name="e_0_energy">   -110.43705382 </i>
   </energy>
  </scstep>
  <scstep>
   <time name="total">    9.45    9.46</time>
   <energy>
    <i name="e_fr_energy">   -110.43632773 </i>
    <i name="e_wo_entrp">   -110.43505469 </i>
    <i name="e_0_energy">   -110.43569121 </i>
   </energy>
  </scstep>
  <scstep>
   <time name="total">   10.99   11.03</time>
   <energy>
    <i name="e_fr_energy">   -112.33505122 </i>
    <i name="e_wo_entrp">   -112.33505122 </i>
    <i name="e_0_energy">   -112.33505122 </i>
   </energy>
  </scstep>
  <scstep>
   <time name="total">    9.51    9.51</time>
   <energy>
    <i name="e_fr_energy">   -107.63403701 </i>
    <i name="e_wo_entrp">   -107.63403701 </i>
    <i name="e_0_energy">   -107.63403701 </i>
   </energy>
  </scstep>
  <scstep>
   <time name="total">    9.47    9.47</time>
   <energy>
    <i name="e_fr_energy">   -107.86028069 </i>
    <i name="e_wo_entrp">   -107.86028404 </i>
    <i name="e_0_energy">   -107.86028236 </i>
   </energy>
  </scstep>
  <scstep>
   <time name="total">    9.38    9.42</time>
   <energy>
    <i name="e_fr_energy">   -107.59972965 </i>
    <i name="e_wo_entrp">   -107.59972789 </i>
    <i name="e_0_energy">   -107.59972877 </i>
   </energy>
  </scstep>
  <scstep>
   <time name="total">    9.59    9.60</time>
   <energy>
    <i name="e_fr_energy">   -107.49798899 </i>
    <i name="e_wo_entrp">   -107.49800671 </i>
    <i name="e_0_energy">   -107.49799785 </i>
   </energy>
  </scstep>
  <scstep>
   <time name="total">    9.47    9.47</time>
   <energy>
    <i name="e_fr_energy">   -107.50614845 </i>
    <i name="e_wo_entrp">   -107.50612767 </i>
    <i name="e_0_energy">   -107.50613806 </i>
   </energy>
  </scstep>
  <scstep>
   <time name="total">    9.46    9.50</time>
   <energy>
    <i name="e_fr_energy">   -107.51194967 </i>
    <i name="e_wo_entrp">   -107.51195717 </i>
    <i name="e_0_energy">   -107.51195342 </i>
   </energy>
  </scstep>
  <scstep>
   <time name="total">    9.80    9.81</time>
   <energy>
    <i name="e_fr_energy">   -107.52014154 </i>
    <i name="e_wo_entrp">   -107.52012757 </i>
    <i name="e_0_energy">   -107.52013456 </i>
   </energy>
  </scstep>
  <scstep>
   <time name="total">    9.55    9.56</time>
   <energy>
    <i name="e_fr_energy">   -107.52705775 </i>
    <i name="e_wo_entrp">   -107.52706275 </i>
    <i name="e_0_energy">   -107.52706025 </i>
   </energy>
  </scstep>
  <scstep>
   <time name="total">    9.65    9.70</time>
   <energy>
    <i name="e_fr_energy">   -107.52653824 </i>
    <i name="e_wo_entrp">   -107.52653448 </i>
    <i name="e_0_energy">   -107.52653636 </i>
   </energy>
  </scstep>
  <scstep>
   <time name="total">   10.97   11.02</time>
   <energy>
    <i name="e_fr_energy">   -111.24858747 </i>
    <i name="e_wo_entrp">   -111.24819289 </i>
    <i name="e_0_energy">   -111.24839018 </i>
   </energy>
  </scstep>
  <scstep>
   <time name="total">    9.43    9.44</time>
   <energy>
    <i name="e_fr_energy">   -107.98086871 </i>
    <i name="e_wo_entrp">   -107.98047413 </i>
    <i name="e_0_energy">   -107.98067142 </i>
   </energy>
  </scstep>
  <scstep>
   <time name="total">    9.37    9.37</time>
   <energy>
    <i name="e_fr_energy">   -108.36310081 </i>
    <i name="e_wo_entrp">   -108.36696603 </i>
    <i name="e_0_energy">   -108.36503342 </i>
   </energy>
  </scstep>
  <scstep>
   <time name="total">    9.14    9.19</time>
   <energy>
    <i name="e_fr_energy">   -108.00688951 </i>
    <i name="e_wo_entrp">   -108.00746136 </i>
    <i name="e_0_energy">   -108.00717543 </i>
   </energy>
  </scstep>
  <scstep>
   <time name="total">    9.63    9.64</time>
   <energy>
    <i name="e_fr_energy">   -107.97267974 </i>
    <i name="e_wo_entrp">   -107.97367923 </i>
    <i name="e_0_energy">   -107.97317948 </i>
   </energy>
  </scstep>
  <scstep>
   <time name="total">    9.44    9.44</time>
   <energy>
    <i name="e_fr_energy">   -107.97850721 </i>
    <i name="e_wo_entrp">   -107.97894960 </i>
    <i name="e_0_energy">   -107.97872840 </i>
   </energy>
  </scstep>
  <scstep>
   <time name="total">    9.61    9.61</time>
   <energy>
    <i name="e_fr_energy">   -107.98534930 </i>
    <i name="e_wo_entrp">   -107.98611585 </i>
    <i name="e_0_energy">   -107.98573257 </i>
   </energy>
  </scstep>
  <scstep>
   <time name="total">    9.69    9.73</time>
   <energy>
    <i name="e_fr_energy">   -107.99338724 </i>
    <i name="e_wo_entrp">   -107.99410185 </i>
    <i name="e_0_energy">   -107.99374455 </i>
   </energy>
  </scstep>
  <scstep>
   <time name="total">    9.60    9.60</time>
   <energy>
    <i name="e_fr_energy">   -108.00260570 </i>
    <i name="e_wo_entrp">   -108.00333946 </i>
    <i name="e_0_energy">   -108.00297258 </i>
   </energy>
  </scstep>
  <scstep>
   <time name="total">    9.72    9.72</time>
   <energy>
    <i name="e_fr_energy">   -108.00332329 </i>
    <i name="e_wo_entrp">   -108.00406009 </i>
    <i name="e_0_energy">   -108.00369169 </i>
   </energy>
  </scstep>
  <scstep>
   <time name="total">   11.02   11.03</time>
   <energy>
    <i name="e_fr_energy">   -116.83925914 </i>
    <i name="e_wo_entrp">   -116.84041412 </i>
    <i name="e_0_energy">   -116.83983663 </i>
   </energy>
  </scstep>
  <scstep>
   <time name="total">    9.67    9.71</time>
   <energy>
    <i name="e_fr_energy">   -110.42162620 </i>
    <i name="e_wo_entrp">   -110.42278119 </i>
    <i name="e_0_energy">   -110.42220370 </i>
   </energy>
  </scstep>
  <scstep>
   <time name="total">    9.60    9.60</time>
   <energy>
    <i name="e_fr_energy">   -110.75437369 </i>
    <i name="e_wo_entrp">   -110.74814951 </i>
    <i name="e_0_energy">   -110.75126160 </i>
   </energy>
  </scstep>
  <scstep>
   <time name="total">    9.13    9.14</time>
   <energy>
    <i name="e_fr_energy">   -110.07349008 </i>
    <i name="e_wo_entrp">   -110.07241878 </i>
    <i name="e_0_energy">   -110.07295443 </i>
   </energy>
  </scstep>
  <scstep>
   <time name="total">    9.41    9.45</time>
   <energy>
    <i name="e_fr_energy">   -110.01990818 </i>
    <i name="e_wo_entrp">   -110.01744165 </i>
    <i name="e_0_energy">   -110.01867492 </i>
   </energy>
  </scstep>
  <scstep>
   <time name="total">    9.27    9.27</time>
   <energy>
    <i name="e_fr_energy">   -109.82482395 </i>
    <i name="e_wo_entrp">   -109.82360406 </i>
    <i name="e_0_energy">   -109.82421401 </i>
   </energy>
  </scstep>
  <scstep>
   <time name="total">    9.54    9.55</time>
   <energy>
    <i name="e_fr_energy">   -109.83070541 </i>
    <i name="e_wo_entrp">   -109.82892876 </i>
    <i name="e_0_energy">   -109.82981708 </i>
   </energy>
  </scstep>
  <scstep>
   <time name="total">    9.56    9.61</time>
   <energy>
    <i name="e_fr_energy">   -109.83690758 </i>
    <i name="e_wo_entrp">   -109.83520098 </i>
    <i name="e_0_energy">   -109.83605428 </i>
   </energy>
  </scstep>
  <scstep>
   <time name="total">    9.50    9.52</time>
   <energy>
    <i name="e_fr_energy">   -109.83997939 </i>
    <i name="e_wo_entrp">   -109.83807255 </i>
    <i name="e_0_energy">   -109.83902597 </i>
   </energy>
  </scstep>
  <scstep>
   <time name="total">    9.49    9.49</time>
   <energy>
    <i name="e_fr_energy">   -109.83645906 </i>
    <i name="e_wo_entrp">   -109.83475987 </i>
    <i name="e_0_energy">   -109.83560947 </i>
   </energy>
  </scstep>
  <scstep>
   <time name="total">    9.63    9.63</time>
   <energy>
    <i name="e_fr_energy">   -109.83517029 </i>
    <i name="e_wo_entrp">   -109.83339730 </i>
    <i name="e_0_energy">   -109.83428380 </i>
   </energy>
  </scstep>
  <scstep>
   <time name="total">   10.83   10.84</time>
   <energy>
    <i name="e_fr_energy">   -112.58029785 </i>
    <i name="e_wo_entrp">   -112.58071844 </i>
    <i name="e_0_energy">   -112.58050815 </i>
   </energy>
  </scstep>
  <scstep>
   <time name="total">    9.53    9.57</time>
   <energy>
    <i name="e_fr_energy">   -107.62983222 </i>
    <i name="e_wo_entrp">   -107.63025281 </i>
    <i name="e_0_energy">   -107.63004251 </i>
   </energy>
  </scstep>
  <scstep>
   <time name="total">    9.45    9.46</time>
   <energy>
    <i name="e_fr_energy">   -107.77040948 </i>
    <i name="e_wo_entrp">   -107.77101182 </i>
    <i name="e_0_energy">   -107.77071065 </i>
   </energy>
  </scstep>
  <scstep>
   <time name="total">    9.15    9.16</time>
   <energy>
    <i name="e_fr_energy">   -107.54858687 </i>
    <i name="e_wo_entrp">   -107.54899582 </i>
    <i name="e_0_energy">   -107.54879135 </i>
   </energy>
  </scstep>
  <scstep>
   <time name="total">    9.54    9.58</time>
   <energy>
    <i name="e_fr_energy">   -107.39265332 </i>
    <i name="e_wo_entrp">   -107.39196519 </i>
    <i name="e_0_energy">   -107.39230926 </i>
   </energy>
  </scstep>
  <scstep>
   <time name="total">    9.40    9.41</time>
   <energy>
    <i name="e_fr_energy">   -107.38886890 </i>
    <i name="e_wo_entrp">   -107.38965073 </i>
    <i name="e_0_energy">   -107.38925982 </i>
   </energy>
  </scstep>
  <scstep>
   <time name="total">    9.36    9.37</time>
   <energy>
    <i name="e_fr_energy">   -107.40154334 </i>
    <i name="e_wo_entrp">   -107.40175047 </i>
    <i name="e_0_energy">   -107.40164691 </i>
   </energy>
  </scstep>
  <scstep>
   <time name="total">    9.63    9.67</time>
   <energy>
    <i name="e_fr_energy">   -107.40827101 </i>
    <i name="e_wo_entrp">   -107.40850845 </i>
    <i name="e_0_energy">   -107.40838973 </i>
   </energy>
  </scstep>
  <scstep>
   <time name="total">    9.59    9.60</time>
   <energy>
    <i name="e_fr_energy">   -107.41963232 </i>
    <i name="e_wo_entrp">   -107.41984434 </i>
    <i name="e_0_energy">   -107.41973833 </i>
   </energy>
  </scstep>
  <scstep>
   <time name="total">    9.70    9.70</time>
   <energy>
    <i name="e_fr_energy">   -107.41953663 </i>
    <i name="e_wo_entrp">   -107.41977284 </i>
    <i name="e_0_energy">   -107.41965473 </i>
   </energy>
  </scstep>
  <scstep>
   <time name="total">   10.94   10.94</time>
   <energy>
    <i name="e_fr_energy">   -111.43838272 </i>
    <i name="e_wo_entrp">   -111.43715959 </i>
    <i name="e_0_energy">   -111.43777116 </i>
   </energy>
  </scstep>
  <scstep>
   <time name="total">    9.26    9.27</time>
   <energy>
    <i name="e_fr_energy">   -108.30145137 </i>
    <i name="e_wo_entrp">   -108.30022824 </i>
    <i name="e_0_energy">   -108.30083980 </i>
   </energy>
  </scstep>
  <scstep>
   <time name="total">    9.43    9.48</time>
   <energy>
    <i name="e_fr_energy">   -108.44640052 </i>
    <i name="e_wo_entrp">   -108.44333560 </i>
    <i name="e_0_energy">   -108.44486806 </i>
   </energy>
  </scstep>
  <scstep>
   <time name="total">    9.19    9.20</time>
   <energy>
    <i name="e_fr_energy">   -108.25730474 </i>
    <i name="e_wo_entrp">   -108.25557803 </i>
    <i name="e_0_energy">   -108.25644138 </i>
   </energy>
  </scstep>
  <scstep>
   <time name="total">    9.58    9.58</time>
   <energy>
    <i name="e_fr_energy">   -108.15242485 </i>
    <i name="e_wo_entrp">   -108.15043378 </i>
    <i name="e_0_energy">   -108.15142932 </i>
   </energy>
  </scstep>
  <scstep>
   <time name="total">    9.38    9.42</time>
   <energy>
    <i name="e_fr_energy">   -108.15184728 </i>
    <i name="e_wo_entrp">   -108.15025310 </i>
    <i name="e_0_energy">   -108.15105019 </i>
   </energy>
  </scstep>
  <scstep>
   <time name="total">    9.72    9.73</time>
   <energy>
    <i name="e_fr_energy">   -108.16554698 </i>
    <i name="e_wo_entrp">   -108.16363780 </i>
    <i name="e_0_energy">   -108.16459239 </i>
   </energy>
  </scstep>
  <scstep>
   <time name="total">    9.56    9.56</time>
   <energy>
    <i name="e_fr_energy">   -108.17298004 </i>
    <i name="e_wo_entrp">   -108.17118644 </i>
    <i name="e_0_energy">   -108.17208324 </i>
   </energy>
  </scstep>
  <scstep>
   <time name="total">    9.57    9.62</time>
   <energy>
    <i name="e_fr_energy">   -108.18504706 </i>
    <i name="e_wo_entrp">   -108.18316221 </i>
    <i name="e_0_energy">   -108.18410464 </i>
   </energy>
  </scstep>
  <scstep>
   <time name="total">    9.61    9.62</time>
   <energy>
    <i name="e_fr_energy">   -108.18670046 </i>
    <i name="e_wo_entrp">   -108.18485128 </i>
    <i name="e_0_energy">   -108.18577587 </i>
   </energy>
  </scstep>
  <scstep>
   <time name="total">   11.09   11.10</time>
   <energy>
    <i name="e_fr_energy">   -116.85118432 </i>
    <i name="e_wo_entrp">   -116.85019085 </i>
    <i name="e_0_energy">   -116.85068758 </i>
   </energy>
  </scstep>
  <scstep>
   <time name="total">    9.51    9.51</time>
   <energy>
    <i name="e_fr_energy">   -110.80942864 </i>
    <i name="e_wo_entrp">   -110.80843517 </i>
    <i name="e_0_energy">   -110.80893190 </i>
   </energy>
  </scstep>
  <scstep>
   <time name="total">    9.45    9.45</time>
   <energy>
    <i name="e_fr_energy">   -111.09436282 </i>
    <i name="e_wo_entrp">   -111.09495846 </i>
    <i name="e_0_energy">   -111.09466064 </i>
   </energy>
  </scstep>
  <scstep>
[...]
       <r>    0.8225    0.0000 </r>
       <r>    0.8982    0.0000 </r>
       <r>    1.0082    0.0000 </r>
       <r>    1.0326    0.0000 </r>
       <r>    1.1144    0.0000 </r>
       <r>    1.1338    0.0000 </r>
       <r>    1.1993    0.0000 </r>
       <r>    1.2731    0.0000 </r>
       <r>    1.3099    0.0000 </r>
       <r>    1.3362    0.0000 </r>
       <r>    1.3978    0.0000 </r>
       <r>    1.5479    0.0000 </r>
       <r>    1.5815    0.0000 </r>
       <r>    1.5999    0.0000 </r>
       <r>    1.6504    0.0000 </r>
       <r>    1.6653    0.0000 </r>
       <r>    1.6974    0.0000 </r>
       <r>    1.7161    0.0000 </r>
       <r>    1.7426    0.0000 </r>
       <r>    1.8328    0.0000 </r>
       <r>    1.8785    0.0000 </r>
       <r>    1.8863    0.0000 </r>
       <r>    1.9180    0.0000 </r>
       <r>    1.9475    0.0000 </r>
       <r>    2.0212    0.0000 </r>
       <r>    2.0716    0.0000 </r>
       <r>    2.1022    0.0000 </r>
       <r>    2.1153    0.0000 </r>
       <r>    2.1873    0.0000 </r>
       <r>    2.2209    0.0000 </r>
       <r>    2.2465    0.0000 </r>
       <r>    2.2756    0.0000 </r>
      </set>
     </set>
    </set>
   </array>
  </eigenvalues>
  <separator name="orbital magnetization" >
   <v name="MAGDIPOLOUT">      0.00000000      0.00000000      0.00000000</v>
  </separator>
  <dos>
   <i name="efermi">      0.12271004 </i>
   <total>
    <array>
     <dimension dim="1">gridpoints</dimension>
     <dimension dim="2">spin</dimension>
     <field>energy</field>
     <field>total</field>
     <field>integrated</field>
     <set>
      <set comment="spin 1">
       <r>   -13.2816     0.0000     0.0000 </r>
       <r>   -13.2271     0.0000     0.0000 </r>
       <r>   -13.1726     0.0000     0.0000 </r>
       <r>   -13.1181     0.0000     0.0000 </r>
       <r>   -13.0635     0.0000     0.0000 </r>
       <r>   -13.0090     0.0000     0.0000 </r>
       <r>   -12.9545     0.0000     0.0000 </r>
       <r>   -12.9000     0.0000     0.0000 </r>
       <r>   -12.8455     0.0000     0.0000 </r>
       <r>   -12.7910     0.0000     0.0000 </r>
       <r>   -12.7365     0.0000     0.0000 </r>
       <r>   -12.6819     0.0002     0.0000 </r>
       <r>   -12.6274     0.0532     0.0029 </r>
       <r>   -12.5729     1.4750     0.0833 </r>
       <r>   -12.5184     6.4061     0.4325 </r>
       <r>   -12.4639    10.9041     1.0270 </r>
       <r>   -12.4094    10.5616     1.6027 </r>
       <r>   -12.3549     6.2026     1.9408 </r>
       <r>   -12.3003     4.3066     2.1756 </r>
       <r>   -12.2458    10.2658     2.7352 </r>
       <r>   -12.1913    12.1819     3.3993 </r>
       <r>   -12.1368     7.5890     3.8130 </r>
       <r>   -12.0823     6.3274     4.1580 </r>
       <r>   -12.0278     9.7900     4.6917 </r>
       <r>   -11.9733    17.8447     5.6644 </r>
       <r>   -11.9188    13.3791     6.3938 </r>
       <r>   -11.8642     2.3010     6.5192 </r>
       <r>   -11.8097     6.6321     6.8808 </r>
       <r>   -11.7552    19.1636     7.9254 </r>
       <r>   -11.7007    20.4763     9.0417 </r>
       <r>   -11.6462    23.9633    10.3480 </r>
       <r>   -11.5917    20.8755    11.4860 </r>
       <r>   -11.5372    25.4193    12.8717 </r>
       <r>   -11.4826    25.4089    14.2569 </r>
       <r>   -11.4281    16.6077    15.1622 </r>
       <r>   -11.3736    25.7003    16.5633 </r>
       <r>   -11.3191    35.1163    18.4776 </r>
       <r>   -11.2646    29.7461    20.0992 </r>
       <r>   -11.2101    27.6807    21.6081 </r>
       <r>   -11.1556    26.8504    23.0719 </r>
       <r>   -11.1010    25.4954    24.4617 </r>
       <r>   -11.0465    24.3881    25.7912 </r>
       <r>   -10.9920    30.0250    27.4280 </r>
       <r>   -10.9375    42.8037    29.7614 </r>
       <r>   -10.8830    36.9712    31.7768 </r>
       <r>   -10.8285    31.6798    33.5038 </r>
       <r>   -10.7740    42.4317    35.8169 </r>
       <r>   -10.7194    56.7216    38.9090 </r>
       <r>   -10.6649    45.7187    41.4014 </r>
       <r>   -10.6104    39.6635    43.5636 </r>
       <r>   -10.5559    45.7354    46.0568 </r>
       <r>   -10.5014    34.3408    47.9288 </r>
       <r>   -10.4469    26.0339    49.3480 </r>
       <r>   -10.3924    26.8976    50.8143 </r>
       <r>   -10.3378    28.5141    52.3687 </r>
       <r>   -10.2833    23.0789    53.6269 </r>
       <r>   -10.2288    39.4288    55.7763 </r>
       <r>   -10.1743    42.3492    58.0849 </r>
       <r>   -10.1198    26.8581    59.5490 </r>
       <r>   -10.0653     7.7540    59.9717 </r>
       <r>   -10.0108     0.5130    59.9997 </r>
       <r>    -9.9563     0.0053    60.0000 </r>
       <r>    -9.9017     0.0000    60.0000 </r>
       <r>    -9.8472     0.0000    60.0000 </r>
       <r>    -9.7927     0.0000    60.0000 </r>
       <r>    -9.7382     0.0000    60.0000 </r>
       <r>    -9.6837     0.0000    60.0000 </r>
       <r>    -9.6292     0.0000    60.0000 </r>
       <r>    -9.5747     0.0000    60.0000 </r>
       <r>    -9.5201     0.0000    60.0000 </r>
       <r>    -9.4656     0.0000    60.0000 </r>
       <r>    -9.4111     0.0000    60.0000 </r>
       <r>    -9.3566     0.0000    60.0000 </r>
       <r>    -9.3021     0.0000    60.0000 </r>
       <r>    -9.2476     0.0000    60.0000 </r>
       <r>    -9.1931     0.0000    60.0000 </r>
       <r>    -9.1385     0.0000    60.0000 </r>
       <r>    -9.0840     0.0000    60.0000 </r>
       <r>    -9.0295     0.0000    60.0000 </r>
       <r>    -8.9750     0.0000    60.0000 </r>
       <r>    -8.9205     0.0000    60.0000 </r>
       <r>    -8.8660     0.0000    60.0000 </r>
       <r>    -8.8115     0.0000    60.0000 </r>
       <r>    -8.7569     0.0000    60.0000 </r>
       <r>    -8.7024     0.0000    60.0000 </r>
       <r>    -8.6479     0.0000    60.0000 </r>
       <r>    -8.5934     0.0000    60.0000 </r>
       <r>    -8.5389     0.0000    60.0000 </r>
       <r>    -8.4844     0.0000    60.0000 </r>
       <r>    -8.4299     0.0000    60.0000 </r>
       <r>    -8.3753     0.0000    60.0000 </r>
       <r>    -8.3208     0.0000    60.0000 </r>
       <r>    -8.2663     0.0000    60.0000 </r>
       <r>    -8.2118     0.0000    60.0000 </r>
       <r>    -8.1573     0.0000    60.0000 </r>
       <r>    -8.1028     0.0000    60.0000 </r>
       <r>    -8.0483     0.0000    60.0000 </r>
       <r>    -7.9938     0.0000    60.0000 </r>
       <r>    -7.9392     0.0000    60.0000 </r>
       <r>    -7.8847     0.0000    60.0000 </r>
       <r>    -7.8302     0.0000    60.0000 </r>
       <r>    -7.7757     0.0000    60.0000 </r>
       <r>    -7.7212     0.0000    60.0000 </r>
       <r>    -7.6667     0.0000    60.0000 </r>
       <r>    -7.6122     0.0000    60.0000 </r>
       <r>    -7.5576     0.0000    60.0000 </r>
       <r>    -7.5031     0.0000    60.0000 </r>
       <r>    -7.4486     0.0000    60.0000 </r>
       <r>    -7.3941     0.0000    60.0000 </r>
       <r>    -7.3396     0.0000    60.0000 </r>
       <r>    -7.2851     0.0000    60.0000 </r>
       <r>    -7.2306     0.0000    60.0000 </r>
       <r>    -7.1760     0.0000    60.0000 </r>
       <r>    -7.1215     0.0000    60.0000 </r>
       <r>    -7.0670     0.0000    60.0000 </r>
       <r>    -7.0125     0.0000    60.0000 </r>
       <r>    -6.9580     0.0000    60.0000 </r>
       <r>    -6.9035     0.0000    60.0000 </r>
       <r>    -6.8490     0.0000    60.0000 </r>
       <r>    -6.7944     0.0000    60.0000 </r>
       <r>    -6.7399     0.0000    60.0000 </r>
       <r>    -6.6854     0.0000    60.0000 </r>
       <r>    -6.6309     0.0000    60.0000 </r>
       <r>    -6.5764     0.0000    60.0000 </r>
       <r>    -6.5219     0.0000    60.0000 </r>
       <r>    -6.4674     0.0000    60.0000 </r>
       <r>    -6.4128     0.0000    60.0000 </r>
       <r>    -6.3583     0.0000    60.0000 </r>
       <r>    -6.3038     0.0000    60.0000 </r>
       <r>    -6.2493     0.0000    60.0000 </r>
       <r>    -6.1948     0.0000    60.0000 </r>
       <r>    -6.1403     0.0000    60.0000 </r>
       <r>    -6.0858     0.0000    60.0000 </r>
       <r>    -6.0313     0.0000    60.0000 </r>
       <r>    -5.9767     0.0000    60.0000 </r>
       <r>    -5.9222     0.0000    60.0000 </r>
       <r>    -5.8677     0.0000    60.0000 </r>
       <r>    -5.8132     0.0000    60.0000 </r>
       <r>    -5.7587     0.0000    60.0000 </r>
       <r>    -5.7042     0.0000    60.0000 </r>
       <r>    -5.6497     0.0000    60.0000 </r>
       <r>    -5.5951     0.0059    60.0003 </r>
       <r>    -5.5406     0.4237    60.0234 </r>
       <r>    -5.4861     3.6687    60.2234 </r>
       <r>    -5.4316     4.6162    60.4751 </r>
       <r>    -5.3771     4.0815    60.6976 </r>
       <r>    -5.3226    10.1904    61.2531 </r>
       <r>    -5.2681    19.6673    62.3252 </r>
       <r>    -5.2135    21.4067    63.4922 </r>
       <r>    -5.1590    15.4245    64.3330 </r>
       <r>    -5.1045     9.9993    64.8781 </r>
       <r>    -5.0500    17.6294    65.8392 </r>
       <r>    -4.9955    14.9939    66.6566 </r>
       <r>    -4.9410    17.3022    67.5998 </r>
       <r>    -4.8865    22.5605    68.8296 </r>
       <r>    -4.8319    19.3709    69.8856 </r>
       <r>    -4.7774    17.4925    70.8392 </r>
       <r>    -4.7229    26.1719    72.2659 </r>
       <r>    -4.6684    29.7292    73.8866 </r>
       <r>    -4.6139    36.9396    75.9003 </r>
       <r>    -4.5594    41.4482    78.1598 </r>
       <r>    -4.5049    46.0753    80.6715 </r>
       <r>    -4.4503    48.0293    83.2898 </r>
       <r>    -4.3958    50.4079    86.0377 </r>
       <r>    -4.3413    49.3105    88.7258 </r>
       <r>    -4.2868    40.1874    90.9166 </r>
       <r>    -4.2323    47.9921    93.5329 </r>
       <r>    -4.1778    52.4710    96.3933 </r>
       <r>    -4.1233    36.0047    98.3560 </r>
       <r>    -4.0688    32.3292   100.1184 </r>
       <r>    -4.0142    34.2274   101.9843 </r>
       <r>    -3.9597    33.4675   103.8087 </r>
       <r>    -3.9052    28.8883   105.3835 </r>
       <r>    -3.8507    36.2764   107.3611 </r>
       <r>    -3.7962    44.6544   109.7954 </r>
       <r>    -3.7417    32.4611   111.5650 </r>
       <r>    -3.6872    29.1587   113.1545 </r>
       <r>    -3.6326    36.8209   115.1618 </r>
       <r>    -3.5781    42.4701   117.4770 </r>
       <r>    -3.5236    44.5423   119.9051 </r>
       <r>    -3.4691    41.0579   122.1434 </r>
       <r>    -3.4146    37.2659   124.1749 </r>
       <r>    -3.3601    40.5184   126.3837 </r>
       <r>    -3.3056    39.9972   128.5641 </r>
       <r>    -3.2510    34.6657   130.4539 </r>
       <r>    -3.1965    39.1531   132.5882 </r>
       <r>    -3.1420    46.4507   135.1205 </r>
       <r>    -3.0875    44.7640   137.5607 </r>
       <r>    -3.0330    38.7301   139.6720 </r>
       <r>    -2.9785    32.8039   141.4603 </r>
       <r>    -2.9240    38.1737   143.5413 </r>
       <r>    -2.8694    47.2158   146.1152 </r>
       <r>    -2.8149    51.4775   148.9215 </r>
       <r>    -2.7604    53.3084   151.8275 </r>
       <r>    -2.7059    49.9252   154.5491 </r>
       <r>    -2.6514    53.2542   157.4522 </r>
       <r>    -2.5969    52.1349   160.2943 </r>
       <r>    -2.5424    40.3744   162.4953 </r>
       <r>    -2.4878    40.3282   164.6937 </r>
       <r>    -2.4333    38.7867   166.8081 </r>
       <r>    -2.3788    41.5450   169.0729 </r>
       <r>    -2.3243    37.2963   171.1061 </r>
       <r>    -2.2698    45.1868   173.5694 </r>
       <r>    -2.2153    48.5487   176.2160 </r>
       <r>    -2.1608    50.6718   178.9783 </r>
       <r>    -2.1063    49.1962   181.6601 </r>
       <r>    -2.0517    54.6021   184.6367 </r>
       <r>    -1.9972    48.1067   187.2592 </r>
       <r>    -1.9427    39.9826   189.4388 </r>
       <r>    -1.8882    45.1017   191.8975 </r>
       <r>    -1.8337    50.8907   194.6717 </r>
       <r>    -1.7792    47.6081   197.2670 </r>
       <r>    -1.7247    46.9224   199.8250 </r>
       <r>    -1.6701    50.7241   202.5901 </r>
       <r>    -1.6156    53.4618   205.5045 </r>
       <r>    -1.5611    57.7885   208.6548 </r>
       <r>    -1.5066    53.9425   211.5954 </r>
       <r>    -1.4521    56.0502   214.6509 </r>
       <r>    -1.3976    53.1785   217.5499 </r>
       <r>    -1.3431    53.1615   220.4479 </r>
       <r>    -1.2885    46.7706   222.9976 </r>
       <r>    -1.2340    50.1772   225.7330 </r>
       <r>    -1.1795    60.4185   229.0266 </r>
       <r>    -1.1250    62.9573   232.4586 </r>
       <r>    -1.0705    58.4384   235.6444 </r>
       <r>    -1.0160    53.8803   238.5816 </r>
       <r>    -0.9615    52.4924   241.4431 </r>
       <r>    -0.9069    53.6494   244.3678 </r>
       <r>    -0.8524    51.6186   247.1817 </r>
       <r>    -0.7979    47.4106   249.7662 </r>
       <r>    -0.7434    40.8251   251.9918 </r>
       <r>    -0.6889    43.9759   254.3891 </r>
       <r>    -0.6344    50.4276   257.1381 </r>
       <r>    -0.5799    39.3339   259.2823 </r>
       <r>    -0.5253    34.1253   261.1426 </r>
       <r>    -0.4708    44.0672   263.5449 </r>
       <r>    -0.4163    35.8404   265.4987 </r>
       <r>    -0.3618    19.3239   266.5521 </r>
       <r>    -0.3073    29.4047   268.1551 </r>
       <r>    -0.2528    28.8929   269.7302 </r>
       <r>    -0.1983    18.7664   270.7532 </r>
       <r>    -0.1438    23.3781   272.0276 </r>
       <r>    -0.0892    21.3078   273.1892 </r>
       <r>    -0.0347    15.2152   274.0186 </r>
       <r>     0.0198    17.5666   274.9763 </r>
       <r>     0.0743    14.8431   275.7854 </r>
       <r>     0.1288     4.1772   276.0131 </r>
       <r>     0.1833     4.0387   276.2333 </r>
       <r>     0.2378     6.9661   276.6130 </r>
       <r>     0.2924    10.2887   277.1739 </r>
       <r>     0.3469    17.0065   278.1010 </r>
       <r>     0.4014    16.3585   278.9928 </r>
       <r>     0.4559    19.9216   280.0788 </r>
       <r>     0.5104    24.9326   281.4380 </r>
       <r>     0.5649    26.8362   282.9009 </r>
       <r>     0.6194    27.0023   284.3729 </r>
       <r>     0.6740    19.7995   285.4523 </r>
       <r>     0.7285    25.4168   286.8378 </r>
       <r>     0.7830    27.8234   288.3546 </r>
       <r>     0.8375    26.6699   289.8085 </r>
       <r>     0.8920    31.1395   291.5060 </r>
       <r>     0.9465    25.9106   292.9185 </r>
       <r>     1.0010    26.2250   294.3481 </r>
       <r>     1.0556    41.3534   296.6024 </r>
       <r>     1.1101    34.7361   298.4960 </r>
       <r>     1.1646    33.7149   300.3340 </r>
       <r>     1.2191    32.5516   302.1085 </r>
       <r>     1.2736    36.1864   304.0812 </r>
       <r>     1.3281    38.0788   306.1570 </r>
       <r>     1.3826    36.5523   308.1496 </r>
       <r>     1.4372    27.7120   309.6603 </r>
       <r>     1.4917    19.1433   310.7038 </r>
       <r>     1.5462    26.9486   312.1729 </r>
       <r>     1.6007    47.8341   314.7805 </r>
       <r>     1.6552    54.7115   317.7631 </r>
       <r>     1.7097    57.0152   320.8712 </r>
       <r>     1.7642    52.0641   323.7094 </r>
       <r>     1.8188    39.7595   325.8769 </r>
       <r>     1.8733    45.2113   328.3415 </r>
       <r>     1.9278    54.8043   331.3291 </r>
       <r>     1.9823    53.5731   334.2496 </r>
       <r>     2.0368    49.6890   336.9583 </r>
       <r>     2.0913    50.9690   339.7368 </r>
       <r>     2.1458    55.2013   342.7461 </r>
       <r>     2.2003    55.3635   345.7642 </r>
       <r>     2.2549    60.6214   349.0689 </r>
       <r>     2.3094    40.9340   351.3003 </r>
       <r>     2.3639    11.5264   351.9287 </r>
       <r>     2.4184     1.2739   351.9981 </r>
       <r>     2.4729     0.0340   352.0000 </r>
       <r>     2.5274     0.0001   352.0000 </r>
       <r>     2.5819     0.0000   352.0000 </r>
       <r>     2.6365     0.0000   352.0000 </r>
       <r>     2.6910     0.0000   352.0000 </r>
       <r>     2.7455     0.0000   352.0000 </r>
       <r>     2.8000     0.0000   352.0000 </r>
       <r>     2.8545     0.0000   352.0000 </r>
       <r>     2.9090     0.0000   352.0000 </r>
       <r>     2.9635     0.0000   352.0000 </r>
       <r>     3.0181     0.0000   352.0000 </r>
       <r>     3.0726     0.0000   352.0000 </r>
      </set>
     </set>
    </array>
   </total>
  </dos>
 </calculation>
 <structure name="finalpos" >
  <crystal>
   <varray name="basis" >
    <v>      13.80799961       0.00000000       0.00000000 </v>
    <v>       0.00000000      12.73600006       0.00000000 </v>
    <v>       0.00000000       0.00000000      16.00000000 </v>
   </varray>
   <i name="volume">   2813.73894219 </i>
   <varray name="rec_basis" >
    <v>       0.07242179       0.00000000       0.00000000 </v>
    <v>       0.00000000       0.07851759       0.00000000 </v>
    <v>       0.00000000       0.00000000       0.06250000 </v>
   </varray>
  </crystal>
  <varray name="positions" >
   <v>       0.62500000       0.04711080       0.63068768 </v>
   <v>       0.35310285       0.05305354       0.62687551 </v>
   <v>       0.89689716       0.05305354       0.62687550 </v>
   <v>       0.12500001       0.55248226       0.62834861 </v>
   <v>       0.62500000       0.54769795       0.63184236 </v>
   <v>       0.37251689       0.54865522       0.63006937 </v>
   <v>       0.87748311       0.54865522       0.63006936 </v>
   <v>       0.12500000       0.37605509       0.40528699 </v>
   <v>       0.62500000       0.37273443       0.41210369 </v>
   <v>       0.37647181       0.37496356       0.40909216 </v>
   <v>       0.87352820       0.37496357       0.40909215 </v>
   <v>       0.12499999       0.87005309       0.39633040 </v>
   <v>       0.38429212       0.87699220       0.40831257 </v>
   <v>       0.86570788       0.87699220       0.40831257 </v>
   <v>       0.99810815       0.13120424       0.36377818 </v>
   <v>       0.49979290       0.12213396       0.37309457 </v>
   <v>       0.25189187       0.13120425       0.36377817 </v>
   <v>       0.75020710       0.12213397       0.37309456 </v>
   <v>       0.99709627       0.62743413       0.37023164 </v>
   <v>       0.50367557       0.63549681       0.37632349 </v>
   <v>       0.25290374       0.62743413       0.37023164 </v>
   <v>       0.74632443       0.63549681       0.37632347 </v>
   <v>       0.00651523       0.30123324       0.59265324 </v>
   <v>       0.49759078       0.30244798       0.59303177 </v>
   <v>       0.24348477       0.30123325       0.59265323 </v>
   <v>       0.75240922       0.30244797       0.59303175 </v>
   <v>       0.00847088       0.81032112       0.58831521 </v>
   <v>       0.49606610       0.80720497       0.59605485 </v>
   <v>       0.24152911       0.81032113       0.58831522 </v>
   <v>       0.75393389       0.80720497       0.59605484 </v>
   <v>       0.12499998       0.16942130       0.48853505 </v>
   <v>       0.62500000       0.17509532       0.49592956 </v>
   <v>       0.37179175       0.18052620       0.49293513 </v>
   <v>       0.87820825       0.18052619       0.49293516 </v>
   <v>       0.12500000       0.67730843       0.48998966 </v>
   <v>       0.62500000       0.68377147       0.50360523 </v>
   <v>       0.37420221       0.68084844       0.49641434 </v>
   <v>       0.87579779       0.68084843       0.49641435 </v>
   <v>       0.01489715       0.00271422       0.49699738 </v>
   <v>       0.48883550       0.00362179       0.51237604 </v>
   <v>       0.23510284       0.00271421       0.49699739 </v>
   <v>       0.76116450       0.00362179       0.51237604 </v>
   <v>       0.00241817       0.49735596       0.50550705 </v>
   <v>       0.49969914       0.49946367       0.50824879 </v>
   <v>       0.24758183       0.49735595       0.50550706 </v>
   <v>       0.75030087       0.49946368       0.50824879 </v>
  </varray>
 </structure>
</modeling>
